<VTKFile type="UnstructuredGrid" version="0.1" byte_order="LittleEndian">
  <UnstructuredGrid>
    <Piece NumberOfPoints="15805" NumberOfCells="31203">
      <Points>
        <DataArray type = "Float64" NumberOfComponents="3" format="ascii">
1.03911 1.0141 0.0 
1.05242 1.01895 0.0 
1.04132 1.0158 0.0 
1.03632 1.01443 0.0 
1.03683 1.017 0.0 
1.03258 1.01311 0.0 
1.03646 1.01628 0.0 
1.03317 1.01433 0.0 
1.03485 1.01263 0.0 
1.05012 1.01908 0.0 
1.03432 1.01569 0.0 
1.05273 1.01843 0.0 
1.03555 1.01372 0.0 
1.03777 1.01575 0.0 
1.05413 1.01878 0.0 
1.03495 1.0142 0.0 
1.0352 1.01545 0.0 
1.04341 1.01605 0.0 
1.03606 1.0166 0.0 
1.03537 1.01616 0.0 
1.0325 1.01457 0.0 
1.04717 1.01844 0.0 
1.03488 1.01341 0.0 
1.04191 1.01464 0.0 
1.03757 1.01775 0.0 
1.05895 1.01556 0.0 
1.04294 1.01525 0.0 
1.04895 1.01769 0.0 
1.05091 1.01802 0.0 
1.05082 1.01867 0.0 
1.03575 1.0142 0.0 
1.04459 1.01712 0.0 
1.04777 1.01713 0.0 
1.04171 1.01652 0.0 
1.0637 1.01684 0.0 
1.03287 1.01508 0.0 
1.05608 1.01071 0.0 
1.03721 1.01434 0.0 
1.09278 1.00864 0.0 
1.0843 0.987795 0.0 
1.04517 1.01751 0.0 
1.0459 1.01793 0.0 
1.04385 1.0167 0.0 
1.07435 0.987589 0.0 
1.086 0.987009 0.0 
1.07898 0.99321 0.0 
1.0451 1.00612 0.0 
1.0444 1.0178 0.0 
1.03846 1.01532 0.0 
1.08729 0.987872 0.0 
1.05669 1.01539 0.0 
1.03755 1.01513 0.0 
1.05622 1.01884 0.0 
1.05192 1.0158 0.0 
1.04889 1.01847 0.0 
1.0551 1.00671 0.0 
1.03466 1.01494 0.0 
1.04625 1.007 0.0 
1.03756 1.01647 0.0 
1.03636 1.01377 0.0 
1.06057 0.991959 0.0 
1.05972 1.01637 0.0 
1.03695 1.01574 0.0 
1.04106 1.01448 0.0 
1.04357 1.01728 0.0 
1.07333 0.980841 0.0 
1.04015 1.01494 0.0 
1.04285 1.01676 0.0 
1.04337 1.00529 0.0 
1.08397 0.985646 0.0 
1.08514 0.987378 0.0 
1.04764 1.00987 0.0 
1.08804 0.987423 0.0 
1.07416 0.986391 0.0 
1.08058 0.987932 0.0 
1.0716 1.00262 0.0 
1.07513 1.00373 0.0 
1.0481 1.00748 0.0 
1.05289 1.00885 0.0 
1.07142 0.985696 0.0 
1.08648 0.98818 0.0 
1.04675 1.01667 0.0 
1.03957 1.01615 0.0 
1.07817 0.980879 0.0 
1.05109 1.00945 0.0 
1.0723 0.981693 0.0 
1.08363 1.01127 0.0 
1.06947 1.00988 0.0 
1.04235 1.01802 0.0 
1.05441 1.01516 0.0 
1.0784 0.983337 0.0 
1.08054 1.01103 0.0 
1.05402 1.00685 0.0 
1.0433 1.01869 0.0 
1.04116 1.01823 0.0 
1.04893 1.00734 0.0 
1.05685 0.995103 0.0 
1.06872 0.983121 0.0 
1.07475 1.0108 0.0 
1.03662 1.01501 0.0 
1.05362 1.01089 0.0 
1.07895 0.982773 0.0 
1.06115 1.01694 0.0 
1.07654 0.982352 0.0 
1.04133 1.01765 0.0 
1.03578 1.01301 0.0 
1.04492 1.0165 0.0 
1.07293 1.00897 0.0 
1.03966 1.01278 0.0 
1.04422 1.00475 0.0 
1.03486 1.01183 0.0 
1.06502 1.01345 0.0 
1.08191 0.986517 0.0 
1.09094 0.999902 0.0 
1.0901 1.00883 0.0 
1.07463 0.988305 0.0 
1.06329 0.988931 0.0 
1.03996 1.01808 0.0 
1.08695 0.987127 0.0 
1.0548 1.0171 0.0 
1.0805 0.985224 0.0 
1.07244 1.01083 0.0 
1.08264 0.984982 0.0 
1.03407 1.01309 0.0 
1.07997 0.982474 0.0 
1.08002 0.983245 0.0 
1.085 0.985748 0.0 
1.04499 1.01896 0.0 
1.05839 1.00811 0.0 
1.08158 0.987112 0.0 
1.07718 0.981031 0.0 
1.07919 0.984444 0.0 
1.04205 1.01725 0.0 
1.06455 1.01752 0.0 
1.03809 1.01382 0.0 
1.07214 0.987975 0.0 
1.07914 0.98361 0.0 
1.08643 0.98645 0.0 
1.0814 0.988386 0.0 
1.08332 0.987049 0.0 
1.07872 0.981458 0.0 
1.08846 1.01164 0.0 
1.0853 0.986527 0.0 
1.08427 0.986983 0.0 
1.03565 1.01213 0.0 
1.08941 1.00815 0.0 
1.08845 0.988304 0.0 
1.06763 1.01383 0.0 
1.07911 0.988448 0.0 
1.08075 0.987113 0.0 
1.04719 1.00802 0.0 
1.08126 0.987679 0.0 
1.0529 1.01472 0.0 
1.04757 1.01059 0.0 
1.06464 1.00187 0.0 
1.07997 0.985637 0.0 
1.07929 0.982011 0.0 
1.08384 0.995975 0.0 
1.07978 1.01034 0.0 
1.04533 1.0104 0.0 
1.04047 1.01754 0.0 
1.07836 0.982139 0.0 
1.05172 1.00728 0.0 
1.07781 0.981542 0.0 
1.07975 0.985034 0.0 
1.07672 1.0094 0.0 
1.09023 0.987503 0.0 
1.08125 0.98634 0.0 
1.08193 0.984578 0.0 
1.08975 0.988233 0.0 
1.08071 0.985849 0.0 
1.06292 0.992796 0.0 
1.06888 0.981525 0.0 
1.07709 0.981727 0.0 
1.07231 0.985935 0.0 
1.08075 0.984161 0.0 
1.07999 0.983928 0.0 
1.08022 0.984587 0.0 
1.04236 1.01595 0.0 
1.07838 0.983952 0.0 
1.0824 0.987108 0.0 
1.03638 1.01031 0.0 
1.08047 0.990225 0.0 
1.05146 1.01628 0.0 
1.0786 1.0115 0.0 
1.08049 0.986384 0.0 
1.05251 1.01524 0.0 
1.05313 1.00534 0.0 
1.05022 1.00355 0.0 
1.05944 1.01196 0.0 
1.05063 1.00997 0.0 
1.07782 1.00896 0.0 
1.05505 1.01828 0.0 
1.04919 1.00942 0.0 
1.05372 1.00842 0.0 
1.082 1.00994 0.0 
1.05093 1.00077 0.0 
1.05185 1.00448 0.0 
1.06277 0.9935 0.0 
1.05022 0.999867 0.0 
1.0368 1.0083 0.0 
1.07951 0.983021 0.0 
1.05737 1.00907 0.0 
1.05615 1.01029 0.0 
1.0423 1.00592 0.0 
1.0518 1.01752 0.0 
1.05605 1.00986 0.0 
1.04722 1.00251 0.0 
1.05853 1.01039 0.0 
1.03374 1.01502 0.0 
1.08759 0.995971 0.0 
1.07865 1.0133 0.0 
1.04295 1.00555 0.0 
1.08599 1.0087 0.0 
1.08803 1.00878 0.0 
1.03608 1.00852 0.0 
1.03798 1.00789 0.0 
1.06937 0.988361 0.0 
1.04194 1.01535 0.0 
1.08359 0.985079 0.0 
1.07504 0.982823 0.0 
1.06794 0.998284 0.0 
1.08343 0.986278 0.0 
1.08701 1.00806 0.0 
1.07721 1.01296 0.0 
1.07627 1.01175 0.0 
1.05288 1.00703 0.0 
1.03775 1.00798 0.0 
1.08278 1.01398 0.0 
1.07514 1.01283 0.0 
1.06534 0.984461 0.0 
1.04843 1.01901 0.0 
1.0818 0.985094 0.0 
1.03656 1.00837 0.0 
1.06179 1.01241 0.0 
1.0456 1.0076 0.0 
1.06472 0.998045 0.0 
1.09023 0.996178 0.0 
1.08305 0.985684 0.0 
1.06501 0.992294 0.0 
1.0913 1.00823 0.0 
1.08439 0.986236 0.0 
1.08652 1.00938 0.0 
1.05307 1.01788 0.0 
1.05005 1.008 0.0 
1.03728 1.00814 0.0 
1.05904 1.00064 0.0 
1.05167 1.00321 0.0 
1.08495 1.00913 0.0 
1.0356 1.00866 0.0 
1.05572 1.01482 0.0 
1.06624 0.990298 0.0 
1.0469 1.01003 0.0 
1.07291 1.01455 0.0 
1.08588 1.01362 0.0 
1.045 1.01511 0.0 
1.05429 1.00782 0.0 
1.04715 1.00869 0.0 
1.03457 1.01638 0.0 
1.03866 1.01172 0.0 
1.03488 1.00885 0.0 
1.05018 1.00067 0.0 
1.03302 1.01042 0.0 
1.03636 1.01159 0.0 
1.03886 1.01667 0.0 
1.082 0.985769 0.0 
1.07277 0.987319 0.0 
1.04011 1.01431 0.0 
1.06937 0.993653 0.0 
1.06912 1.01357 0.0 
1.04063 1.01631 0.0 
1.06796 1.01498 0.0 
1.06903 0.9857 0.0 
1.07158 0.997386 0.0 
1.06838 0.985484 0.0 
1.06712 0.994153 0.0 
1.06492 0.984913 0.0 
1.06538 1.00787 0.0 
1.0926 0.991623 0.0 
1.05373 1.00291 0.0 
1.03655 1.009 0.0 
1.05984 0.992283 0.0 
1.08239 0.997381 0.0 
1.06935 0.986248 0.0 
1.07033 0.98981 0.0 
1.06555 0.990906 0.0 
1.06793 0.996519 0.0 
1.07384 1.00989 0.0 
1.06849 0.988323 0.0 
1.06687 1.00098 0.0 
1.06246 0.990471 0.0 
1.07756 1.00504 0.0 
1.08849 0.999593 0.0 
1.08457 0.997675 0.0 
1.06815 0.984157 0.0 
1.06752 0.982816 0.0 
1.08045 0.999256 0.0 
1.06981 0.985539 0.0 
1.05268 1.00599 0.0 
1.07178 0.986324 0.0 
1.07239 0.984741 0.0 
1.0673 0.983355 0.0 
1.06217 1.00179 0.0 
1.07873 1.00005 0.0 
1.04251 1.0058 0.0 
1.07941 0.999444 0.0 
1.06609 1.0141 0.0 
1.07246 0.998946 0.0 
1.08099 1.00296 0.0 
1.06693 1.00403 0.0 
1.0645 0.985366 0.0 
1.06616 0.984416 0.0 
1.07825 0.984623 0.0 
1.06685 0.984988 0.0 
1.0801 0.98749 0.0 
1.03936 1.01738 0.0 
1.07025 0.988375 0.0 
1.06576 0.984008 0.0 
1.07158 0.983696 0.0 
1.04548 1.00684 0.0 
1.08686 1.00186 0.0 
1.06098 1.01359 0.0 
1.04678 1.00533 0.0 
1.03753 1.01011 0.0 
1.07961 0.987925 0.0 
1.08845 1.00032 0.0 
1.07275 0.996414 0.0 
1.06363 0.987123 0.0 
1.0724 1.01237 0.0 
1.03403 1.00963 0.0 
1.06574 0.988672 0.0 
1.06396 1.00588 0.0 
1.05133 1.01468 0.0 
1.08329 0.999101 0.0 
1.05859 0.991627 0.0 
1.07629 0.986213 0.0 
1.0661 1.00243 0.0 
1.0743 0.989547 0.0 
1.07324 0.988779 0.0 
1.065 0.989742 0.0 
1.05368 1.00135 0.0 
1.04109 1.01513 0.0 
1.06527 0.993971 0.0 
1.08437 0.998937 0.0 
1.07268 0.983919 0.0 
1.07018 0.984252 0.0 
1.04563 1.01691 0.0 
1.06599 0.987399 0.0 
1.05724 0.998553 0.0 
1.05639 0.996193 0.0 
1.06657 0.985725 0.0 
1.07589 0.993031 0.0 
1.03998 1.01684 0.0 
1.08358 1.01348 0.0 
1.08427 0.999613 0.0 
1.08627 0.998945 0.0 
1.08896 1.00659 0.0 
1.0841 0.992791 0.0 
1.07871 0.986688 0.0 
1.07056 0.993554 0.0 
1.07156 1.00992 0.0 
1.06306 0.986916 0.0 
1.08151 0.993292 0.0 
1.03697 1.01025 0.0 
1.03789 1.01076 0.0 
1.03868 1.00763 0.0 
1.06793 0.986672 0.0 
1.07606 0.987921 0.0 
1.07094 1.0079 0.0 
1.04458 1.00679 0.0 
1.08591 0.994997 0.0 
1.07555 1.00164 0.0 
1.06716 0.995862 0.0 
1.06178 1.00757 0.0 
1.06726 0.997552 0.0 
1.06206 1.01638 0.0 
1.04432 1.01612 0.0 
1.06744 0.984019 0.0 
1.07583 0.982106 0.0 
1.06179 0.994778 0.0 
1.06876 0.983731 0.0 
1.08097 0.999918 0.0 
1.07466 1.00839 0.0 
1.07567 0.985625 0.0 
1.07254 0.986598 0.0 
1.04109 1.01389 0.0 
1.07548 0.996643 0.0 
1.04924 1.00317 0.0 
1.08906 1.00347 0.0 
1.06491 0.994983 0.0 
1.09206 0.993397 0.0 
1.04575 1.00834 0.0 
1.07041 0.985907 0.0 
1.04019 1.01554 0.0 
1.07365 0.985153 0.0 
1.07902 0.986082 0.0 
1.07322 0.981605 0.0 
1.04816 1.0025 0.0 
1.04346 1.0181 0.0 
1.05654 1.0004 0.0 
1.06128 0.994471 0.0 
1.08291 1.00428 0.0 
1.07405 0.991968 0.0 
1.06303 0.989791 0.0 
1.0854 0.996702 0.0 
1.06214 0.987895 0.0 
1.0672 0.985645 0.0 
1.07734 1.00677 0.0 
1.09057 1.00619 0.0 
1.0626 0.987405 0.0 
1.08131 0.995629 0.0 
1.06065 0.99359 0.0 
1.05988 1.00335 0.0 
1.06872 0.991932 0.0 
1.06727 0.98722 0.0 
1.08707 1.00541 0.0 
1.06613 0.989383 0.0 
1.07185 1.01387 0.0 
1.07975 0.995489 0.0 
1.06767 0.985217 0.0 
1.06463 0.98815 0.0 
1.06096 1.0072 0.0 
1.08632 1.00474 0.0 
1.07435 1.01608 0.0 
1.05983 1.00818 0.0 
1.0368 1.00966 0.0 
1.06364 1.00479 0.0 
1.05994 0.99362 0.0 
1.09025 1.00254 0.0 
1.03872 1.00987 0.0 
1.07469 0.999868 0.0 
1.07805 0.991992 0.0 
1.07043 0.987015 0.0 
1.08419 1.00271 0.0 
1.07065 0.983001 0.0 
1.03596 1.00981 0.0 
1.07207 0.984066 0.0 
1.09023 0.999445 0.0 
1.07119 1.00381 0.0 
1.09149 0.996645 0.0 
1.03857 1.01599 0.0 
1.04985 1.0002 0.0 
1.0552 1.00108 0.0 
1.06714 0.982516 0.0 
1.05963 0.990547 0.0 
1.03858 1.01102 0.0 
1.07746 0.982233 0.0 
1.08633 1.01114 0.0 
1.06268 1.00351 0.0 
1.08521 1.00321 0.0 
1.04593 1.01378 0.0 
1.06813 0.990584 0.0 
1.06326 0.987619 0.0 
1.07842 0.999127 0.0 
1.08776 1.00454 0.0 
1.03783 1.01299 0.0 
1.08558 0.99746 0.0 
1.06401 0.987755 0.0 
1.04592 1.01631 0.0 
1.09216 0.994597 0.0 
[...]
<PointData>
  <DataArray type = "Float64" Name="Vitesse" NumberOfComponents="3" format="ascii">
0.529185 0.00946818 0.0 
0.961025 0.0418721 0.0 
0.740507 0.0262961 0.0 
0.612838 0.0173356 0.0 
0.951534 0.0573376 0.0 
0.453449 0.00756969 0.0 
0.873574 0.0472007 0.0 
0.648162 0.0257026 0.0 
0.353232 -0.00165331 0.0 
0.98865 0.045938 0.0 
0.834883 0.0467617 0.0 
0.915515 0.0377675 0.0 
0.513104 0.0093005 0.0 
0.782827 0.033662 0.0 
0.935988 0.0388117 0.0 
0.597791 0.0174386 0.0 
0.783577 0.0378131 0.0 
0.748543 0.0260569 0.0 
0.91901 0.054515 0.0 
0.878036 0.0500698 0.0 
0.70211 0.0338479 0.0 
0.961963 0.0451096 0.0 
0.473683 0.00656656 0.0 
0.579159 0.0132736 0.0 
1.0149 0.0653598 0.0 
0.598783 0.0223239 0.0 
0.650817 0.0184131 0.0 
0.877582 0.035874 0.0 
0.892269 0.036488 0.0 
0.950661 0.0418552 0.0 
0.586162 0.0154376 0.0 
0.860119 0.0359645 0.0 
0.829787 0.032086 0.0 
0.825211 0.0344019 0.0 
0.715829 0.0263274 0.0 
0.774427 0.0423663 0.0 
0.164975 0.0198366 0.0 
0.586559 0.0142631 0.0 
0.315719 0.027321 0.0 
-0.23004 0.169586 0.0 
0.894962 0.0391604 0.0 
0.92857 0.0423852 0.0 
0.821604 0.0325972 0.0 
-0.166627 0.0413812 0.0 
-0.224717 0.171835 0.0 
-0.193494 0.141916 0.0 
-0.0228428 0.0170382 0.0 
0.932412 0.0437529 0.0 
0.713323 0.0253685 0.0 
-0.224384 0.167342 0.0 
0.587311 0.0204261 0.0 
0.698627 0.0246927 0.0 
0.927758 0.0371892 0.0 
0.652555 0.0205678 0.0 
0.950119 0.0425229 0.0 
-0.00366993 0.03224 0.0 
0.718568 0.031103 0.0 
-0.0188983 0.0217272 0.0 
0.87903 0.0456811 0.0 
0.510468 0.00842299 0.0 
-0.0182545 0.016576 0.0 
0.680043 0.0246534 0.0 
0.793878 0.0359654 0.0 
0.564878 0.012311 0.0 
0.888526 0.0395487 0.0 
0.290651 -0.0572839 0.0 
0.637585 0.017765 0.0 
0.840174 0.0348767 0.0 
0 0 0.0 
-0.199277 0.165448 0.0 
-0.228269 0.171571 0.0 
0.0873352 0.0140672 0.0 
-0.22193 0.166128 0.0 
-0.130245 0.01868 0.0 
-0.227592 0.149702 0.0 
-0.0107172 0.101449 0.0 
0.0315836 0.101814 0.0 
-0.00667373 0.0230122 0.0 
0.055497 0.0216498 0.0 
-0.0573495 -0.068365 0.0 
-0.226677 0.168565 0.0 
0.789207 0.0289985 0.0 
0.808313 0.0343708 0.0 
0.214854 0.0290305 0.0 
0.0770754 0.0181404 0.0 
0.190485 -0.0728831 0.0 
0.366991 0.0396871 0.0 
0.188125 0.0538503 0.0 
0.976339 0.0510852 0.0 
0.570811 0.0184374 0.0 
-0.0192847 0.0736484 0.0 
0.32883 0.0475392 0.0 
-0.00425945 0.0296941 0.0 
1.02169 0.056159 0.0 
1.00939 0.0574558 0.0 
-0.00736187 0.0238458 0.0 
-0.0134419 0.0138392 0.0 
0.0581677 -0.139976 0.0 
0.27166 0.052454 0.0 
0.695012 0.0253333 0.0 
0.170816 0.0163637 0.0 
0.0172735 0.0746399 0.0 
0.731788 0.026472 0.0 
0.0906703 0.0234242 0.0 
0.954007 0.049832 0.0 
0.401772 0.00101176 0.0 
0.787514 0.0290495 0.0 
0.175027 0.0651234 0.0 
0.343889 0.00010424 0.0 
0 0 0.0 
0.241139 -0.00650206 0.0 
0.397677 0.0278426 0.0 
-0.210901 0.155864 0.0 
0.016391 0.090031 0.0 
0.303622 0.0381785 0.0 
-0.184514 0.0580213 0.0 
-0.00810502 -0.000413619 0.0 
1.01156 0.0599082 0.0 
-0.224128 0.170393 0.0 
0.775439 0.027772 0.0 
-0.158688 0.130966 0.0 
0.256327 0.0509098 0.0 
-0.168776 0.152238 0.0 
0.431846 0.00410812 0.0 
0.025905 0.0860274 0.0 
-0.0364289 0.0989593 0.0 
-0.205793 0.169672 0.0 
1.02525 0.0546587 0.0 
0.0481796 0.0352358 0.0 
-0.220683 0.155679 0.0 
0.215965 0.0152972 0.0 
-0.104671 0.102655 0.0 
0.904524 0.04268 0.0 
0.777722 0.0275015 0.0 
0.499381 0.00736181 0.0 
-0.136462 -0.00348112 0.0 
-0.050373 0.0905934 0.0 
-0.219395 0.171986 0.0 
-0.232808 0.157688 0.0 
-0.224129 0.166518 0.0 
0.143214 0.0485061 0.0 
0.42637 0.0222754 0.0 
-0.220122 0.171781 0.0 
-0.224672 0.170035 0.0 
0.277058 -0.00504133 0.0 
0.270576 0.0463054 0.0 
-0.218744 0.160941 0.0 
0.437471 0.0294856 0.0 
-0.226307 0.135833 0.0 
-0.217186 0.148059 0.0 
0.005149 0.0208517 0.0 
-0.226888 0.154863 0.0 
0.527053 0.016112 0.0 
0.133386 0.0114618 0.0 
-0.0379529 0.0829306 0.0 
-0.17047 0.127811 0.0 
0.0790005 0.0674488 0.0 
-0.120226 0.138578 0.0 
0.287802 0.0542881 0.0 
0.112663 0.010048 0.0 
0.954204 0.0509054 0.0 
0.0829411 0.0542991 0.0 
-0.0011819 0.0255719 0.0 
0.15043 0.0348708 0.0 
-0.142001 0.118506 0.0 
0.221822 0.0634737 0.0 
-0.213969 0.154209 0.0 
-0.202938 0.148856 0.0 
-0.143583 0.141474 0.0 
-0.213612 0.154148 0.0 
-0.184381 0.139297 0.0 
-0.0440982 0.0289833 0.0 
0.144271 -0.0857607 0.0 
0.14376 0.0248864 0.0 
-0.0826023 -0.0399389 0.0 
-0.107471 0.122235 0.0 
-0.0832941 0.108441 0.0 
-0.124984 0.120165 0.0 
0.748155 0.0264625 0.0 
-0.0630347 0.0819117 0.0 
-0.223162 0.161687 0.0 
0.0810307 -0.00630989 0.0 
-0.229396 0.15236 0.0 
0.70877 0.0234395 0.0 
0.338941 0.0461669 0.0 
-0.199325 0.140802 0.0 
0.586555 0.0179354 0.0 
-0.029434 0.0316765 0.0 
-0.0322498 0.0249058 0.0 
0.262177 0.0224276 0.0 
0.104161 0.0161674 0.0 
0.212445 0.0665058 0.0 
0.886917 0.0348266 0.0 
0.0690781 0.017005 0.0 
0.0407762 0.0240259 0.0 
0.287308 0.0539763 0.0 
-0.0149866 0.0128305 0.0 
-0.0355785 0.0299753 0.0 
-0.0483756 0.0351045 0.0 
0 0 0.0 
0 0 0.0 
-0.0112412 0.0874963 0.0 
0.0809915 0.0282171 0.0 
0.139479 0.0212717 0.0 
0 0 0.0 
0.837121 0.0319882 0.0 
0.114669 0.0224455 0.0 
0 0 0.0 
0.153463 0.0255412 0.0 
0.747905 0.0364876 0.0 
-0.101261 0.127085 0.0 
0.453209 0.0326352 0.0 
0 0 0.0 
0.26625 0.0542737 0.0 
0.285473 0.0468433 0.0 
0 0 0.0 
0 0 0.0 
-0.080956 -0.041639 0.0 
0.674829 0.0204045 0.0 
-0.179349 0.159867 0.0 
0.0662863 -0.00357877 0.0 
-0.0841834 0.0891066 0.0 
-0.212014 0.165262 0.0 
0.24883 0.0559576 0.0 
0.419812 0.0361703 0.0 
0.336105 0.0453784 0.0 
-0.00364493 0.0274851 0.0 
0 0 0.0 
0.529575 0.020912 0.0 
0.397284 0.0381244 0.0 
1.82102e-10 -2.23779e-10 0.0 
0.996741 0.0478713 0.0 
-0.165455 0.145053 0.0 
0 0 0.0 
0.303404 0.0256152 0.0 
-0.00933264 0.0196401 0.0 
-0.0702768 0.0752484 0.0 
-0.0832076 0.112356 0.0 
-0.195144 0.16004 0.0 
-0.0613875 0.0225965 0.0 
0.288214 0.0373863 0.0 
-0.213781 0.169191 0.0 
0.29898 0.0471902 0.0 
0.862881 0.0335911 0.0 
0.014037 0.0223261 0.0 
0 0 0.0 
-0.0448496 0.0574778 0.0 
-0.0350153 0.0278184 0.0 
0.27589 0.0539454 0.0 
0 0 0.0 
0.529842 0.0181323 0.0 
-0.0539357 -0.00739457 0.0 
0.0938616 0.013033 0.0 
0.517048 0.0293009 0.0 
0.52677 0.0153195 0.0 
0.614904 0.0164156 0.0 
0.0221539 0.0269205 0.0 
0.02807 0.0184912 0.0 
0.920174 0.0586332 0.0 
0.217756 -0.00412298 0.0 
0 0 0.0 
-0.0080633 0.0071103 0.0 
0.0820575 -0.00703638 0.0 
0.206964 -0.00673872 0.0 
0.88247 0.0440697 0.0 
-0.191546 0.15234 0.0 
-0.133732 -0.00151219 0.0 
0.550471 0.0111518 0.0 
-0.128126 0.058117 0.0 
0.420721 0.0320342 0.0 
0.814105 0.0339186 0.0 
0.539721 0.027054 0.0 
-0.00530357 -0.106076 0.0 
-0.110359 0.103329 0.0 
0.013301 -0.106031 0.0 
-0.0992297 0.0507176 0.0 
2.12603e-10 -2.91891e-10 0.0 
0.0818333 0.0582168 0.0 
-0.163217 0.117408 0.0 
-0.0381525 0.0336633 0.0 
0.0118299 -0.00190261 0.0 
-0.0153074 0.0147912 0.0 
-0.0938544 0.133815 0.0 
-0.027815 -0.0928304 0.0 
-0.126817 0.00259931 0.0 
-0.0525179 0.00370578 0.0 
-0.1002 0.078514 0.0 
0.220772 0.0589938 0.0 
-0.0597135 -0.047652 0.0 
-0.0483368 0.0908065 0.0 
-0.018425 0.0104552 0.0 
0.0811133 0.0949729 0.0 
-0.00483247 0.104118 0.0 
-0.0756747 0.128541 0.0 
0.0462507 -0.1167 0.0 
0.0422564 -0.0491478 0.0 
-0.0564652 0.125988 0.0 
-0.0178125 -0.105501 0.0 
-0.0227432 0.0297628 0.0 
-0.0858161 -0.0464814 0.0 
-0.0339717 -0.0568084 0.0 
0.0403788 -0.0581184 0.0 
-0.0405992 0.0733647 0.0 
-0.0444146 0.122014 0.0 
0 0 0.0 
-0.0564798 0.124976 0.0 
0.456826 0.0275026 0.0 
-0.08451 0.110097 0.0 
0.0445252 0.105696 0.0 
0.00039982 0.0847191 0.0 
1.66994e-10 -2.26811e-10 0.0 
0.0218287 -0.0268246 0.0 
-0.102711 0.0884374 0.0 
0.0331679 -0.0657745 0.0 
-0.219994 0.142841 0.0 
0.953834 0.0526875 0.0 
-0.102176 -0.0307276 0.0 
-2.65112e-66 3.03533e-66 0.0 
0.0286476 -0.091922 0.0 
-0.0206592 0.0198426 0.0 
0.0489402 0.0981082 0.0 
0.403423 0.0222258 0.0 
-0.0269772 0.020677 0.0 
0.0689638 -0.00469943 0.0 
-0.223616 0.139275 0.0 
0.0147375 0.100306 0.0 
-0.12967 0.106853 0.0 
0.0025403 -0.00453217 0.0 
0.348525 0.0404739 0.0 
0.0264094 -0.00444245 0.0 
-0.020736 -0.0251775 0.0 
0.0213162 0.0663009 0.0 
0.529238 0.0152301 0.0 
-0.0461249 0.123856 0.0 
0 0 0.0 
-0.152895 0.0677366 0.0 
-0.0284743 0.0870275 0.0 
-0.193519 0.0679852 0.0 
-0.170427 0.0355582 0.0 
-0.0298407 -0.0072288 0.0 
-0.0335877 0.029687 0.0 
0.653206 0.0187427 0.0 
-0.076516 0.0427691 0.0 
-0.0445597 0.122332 0.0 
0.00664482 -0.0575563 0.0 
0.0168652 -0.123493 0.0 
0.826199 0.0323787 0.0 
-0.00134258 -0.0400166 0.0 
-0.0362904 0.0394763 0.0 
-0.0178048 0.0183572 0.0 
0.022822 -0.0596435 0.0 
-0.191993 0.118779 0.0 
0.886015 0.0428965 0.0 
0.500531 0.0225953 0.0 
-0.0274718 0.118957 0.0 
-0.0340824 0.1166 0.0 
0.209475 0.0595426 0.0 
-0.185493 0.153488 0.0 
-0.193376 0.118447 0.0 
-0.143564 0.067474 0.0 
0.204907 0.0566617 0.0 
0 0 0.0 
-0.186578 0.150544 0.0 
0.0782122 -0.00519761 0.0 
0.121253 -0.00508654 0.0 
0 0 0.0 
-0.00916272 -0.079664 0.0 
-0.195881 0.0829014 0.0 
0.121927 0.070566 0.0 
-0.0199245 0.0168088 0.0 
-0.13201 0.138456 0.0 
-0.0185466 0.112233 0.0 
-0.0972907 0.069224 0.0 
0.0495796 0.0488901 0.0 
-0.0877685 0.082363 0.0 
0.674537 0.025189 0.0 
0.747413 0.0258623 0.0 
0.0464678 -0.0833335 0.0 
0.123331 0.00564873 0.0 
-0.0482736 0.0432793 0.0 
0.0491924 -0.137791 0.0 
-0.0370105 0.122482 0.0 
0.166331 0.070854 0.0 
-0.120895 0.0457268 0.0 
-0.108932 -0.0210119 0.0 
0.483278 0.00730776 0.0 
-0.130371 0.122754 0.0 
-0.0256137 0.0199731 0.0 
0.109063 0.0794688 0.0 
-0.0761236 0.0526936 0.0 
-0.134765 0.11334 0.0 
0.0105894 0.0180981 0.0 
-0.0425387 -0.086883 0.0 
0.72022 0.0248261 0.0 
-0.0711608 -0.0136844 0.0 
-0.177517 0.11782 0.0 
0.198654 -0.0545706 0.0 
-0.0103943 0.00857882 0.0 
0.970513 0.0492605 0.0 
-0.0393481 0.0421736 0.0 
-0.0426692 0.0390231 0.0 
0.0939833 0.0943263 0.0 
-0.19049 0.0912318 0.0 
-0.0152189 0.00503248 0.0 
-0.0952077 0.131379 0.0 
0 0 0.0 
0.023031 -0.0779138 0.0 
0.131283 0.0832517 0.0 
0.206548 0.0553137 0.0 
0 0 0.0 
-0.139484 0.141693 0.0 
-0.0318906 0.0294836 0.0 
-0.031875 0.060496 0.0 
-0.114919 0.0269801 0.0 
-0.0116154 -0.0624036 0.0 
0.156676 0.0748934 0.0 
-0.0376672 -0.0199985 0.0 
0.456995 0.0320553 0.0 
-0.148064 0.140119 0.0 
0.0289137 -0.0943169 0.0 
-0.00526256 -0.0153233 0.0 
0.0345303 0.0482777 0.0 
0.130616 0.0819655 0.0 
0.652544 0.0234791 0.0 
0.0581334 0.0391141 0.0 
0.0390879 -0.00379154 0.0 
-0.000756014 0.0707972 0.0 
-0.0266269 0.0258109 0.0 
0.0881677 0.0794546 0.0 
0.057516 -0.00163762 0.0 
-0.0627606 0.116332 0.0 
-0.210879 0.135301 0.0 
-0.0753775 -0.0605419 0.0 
0.0569255 0.101262 0.0 
0.0685077 -0.119027 0.0 
0.0457484 -0.0048855 0.0 
0.00386613 -0.074357 0.0 
0.000285185 0.0962836 0.0 
0.0138869 0.0958666 0.0 
-0.0660483 0.102429 0.0 
0.801773 0.034684 0.0 
0 0 0.0 
-0.0373365 0.0364193 0.0 
0 0 0.0 
0 0 0.0 
0.14554 -0.00434246 0.0 
0.0884837 0.0395681 0.0 
0.381853 0.033574 0.0 
-0.0227532 0.0722379 0.0 
0.0775941 0.0952884 0.0 
0.443296 0.00919768 0.0 
-0.0910548 -0.00168427 0.0 
0.000582556 -0.00257835 0.0 
-0.0684659 0.125579 0.0 
0.133864 0.0781897 0.0 
0.382067 0.000260038 0.0 
-0.0757162 0.126852 0.0 
0.000122648 -0.00906249 0.0 
0.754901 0.0262676 0.0 
-0.109918 0.107235 0.0 
-0.128632 0.0694969 0.0 
0 0 0.0 
0.00473902 -0.0107271 0.0 
0.885147 0.032809 0.0 
-0.119585 -0.0120184 0.0 
-0.151901 0.132533 0.0 
-0.160513 0.133628 0.0 
-0.0462803 0.124369 0.0 
-0.185158 0.10443 0.0 
-0.0118095 0.00854278 0.0 
-0.2076 0.102595 0.0 
-0.0202129 0.0167061 0.0 
-0.0692085 0.0688392 0.0 
-0.124299 0.123801 0.0 
-0.00521404 0.00520946 0.0 
0.195748 0.0608751 0.0 
-0.0917046 0.121537 0.0 
-0.0377407 0.0451873 0.0 
-0.0106317 0.00895678 0.0 
-0.17091 0.144637 0.0 
0 0 0.0 
-0.141638 0.0815491 0.0 
-0.0105174 0.0107201 0.0 
-0.0932094 0.13226 0.0 
0.193955 0.0670448 0.0 
0.0396279 0.0157795 0.0 
-0.0374434 0.0871884 0.0 
0.684474 0.0252887 0.0 
0 0 0.0 
0.154325 0.0124892 0.0 
0 0 0.0 
0.379292 0.037151 0.0 
-0.0393871 0.0521474 0.0 
0 0 0.0 
0.787273 0.0366246 0.0 
0.768227 0.0271292 0.0 
-0.211178 0.158163 0.0 
0 0 0.0 
0.0576573 0.0200902 0.0 
-0.0465835 0.0637081 0.0 
-0.0196663 0.0141369 0.0 
-0.0658754 0.0401098 0.0 
-0.0454987 0.0376827 0.0 
0.112347 -0.0827544 0.0 
-0.0875351 0.0746159 0.0 
0.00486237 0.113368 0.0 
-0.0482648 0.10715 0.0 
-0.14605 0.137994 0.0 
0.24923 -0.0025249 0.0 
-0.180164 0.0692958 0.0 
-0.0431023 0.0505948 0.0 
0.0639294 0.0940521 0.0 
-0.0388554 0.12233 0.0 
-0.179697 0.088675 0.0 
-0.0298026 -0.0789349 0.0 
0.138469 0.0822889 0.0 
-0.209935 0.147845 0.0 
0.0292696 -0.0391735 0.0 
0.0176718 0.105367 0.0 
0.137249 -0.00736608 0.0 
0 0 0.0 
-0.11757 0.116557 0.0 
-0.0651723 0.107526 0.0 
-0.214077 0.103999 0.0 
0.0396825 0.104048 0.0 
-0.0360424 0.0303735 0.0 
0.00976989 -0.0707448 0.0 
0.690777 0.0231042 0.0 
-0.0629101 0.0773231 0.0 
0.356207 0.0360791 0.0 
0.200274 -0.0079935 0.0 
0.0327947 0.0974535 0.0 
0.0632079 0.0992896 0.0 
-0.0353391 0.0352267 0.0 
0.0634269 -0.0995288 0.0 
0.513139 0.0116916 0.0 
-0.0480599 0.0582322 0.0 
0 0 0.0 
0.00821217 -0.0111538 0.0 
0.122714 0.0751836 0.0 
0.00270593 0.0919732 0.0 
-0.170446 0.130574 0.0 
0.0362165 0.0412694 0.0 
0.751012 0.0262012 0.0 
0.00324822 -0.0291593 0.0 
0.0287581 0.0578729 0.0 
0.239146 -0.0287705 0.0 
-0.0137172 0.0138533 0.0 
-0.0420889 0.0467541 0.0 
0.0531761 -0.14346 0.0 
-0.226184 0.145446 0.0 
-0.0505503 -0.0194338 0.0 
0.18763 0.0731353 0.0 
-0.1991 0.0803945 0.0 
-0.182558 0.144871 0.0 
-0.00941914 0.00830376 0.0 
0.318844 -0.00202123 0.0 
-0.00465944 0.0031053 0.0 
0.747446 0.0257089 0.0 
-0.0380722 0.0325842 0.0 
0.388748 0.0268532 0.0 
0.115945 0.0186754 0.0 
0.863357 0.0355942 0.0 
-0.151584 0.111051 0.0 
-0.0150352 0.0300457 0.0 
0.0949055 0.0711714 0.0 
0.0805372 0.0779231 0.0 
-0.189771 0.135617 0.0 
-0.0247468 -0.0472211 0.0 
-0.0556647 0.122397 0.0 
-0.0424966 0.050924 0.0 
-0.0596166 0.125286 0.0 
-0.201663 0.154503 0.0 
-0.226221 0.16744 0.0 
-0.0752792 0.12467 0.0 
-0.00656628 0.00658328 0.0 
0.0274601 0.0427257 0.0 
0.169338 0.0495912 0.0 
0.370374 0.0331752 0.0 
-0.0783401 -0.0185 0.0 
-0.0433594 -0.0332867 0.0 
-0.0260659 0.119827 0.0 
0.0462701 0.0202529 0.0 
-0.0781459 0.0783967 0.0 
-0.00752146 0.00437757 0.0 
0.401386 0.0343321 0.0 
0.160234 0.0792757 0.0 
-0.0515376 0.0135802 0.0 
-0.0162267 0.010944 0.0 
-0.000912056 -0.0907589 0.0 
0.745139 0.025565 0.0 
-0.0336468 0.0946704 0.0 
-0.205229 0.0866197 0.0 
0.210198 0.0625731 0.0 
-0.0818417 0.0595844 0.0 
0.194371 -0.00179134 0.0 
0.0683409 0.0850564 0.0 
-0.156948 0.144315 0.0 
-0.0237994 0.0219623 0.0 
0 0 0.0 
0.0522622 -0.0976675 0.0 
-0.0221375 0.0246837 0.0 
0.90367 0.0388605 0.0 
-0.0546122 0.0638909 0.0 
-0.00828377 0.00809032 0.0 
-0.0443847 0.0522752 0.0 
-0.0287012 0.0784041 0.0 
-0.0773084 0.071629 0.0 
-0.0206199 0.115397 0.0 
-0.0527827 0.0491102 0.0 
0 0 0.0 
-0.031754 0.00859068 0.0 
0 0 0.0 
-0.0201006 0.0195876 0.0 
0.160398 0.0704329 0.0 
-0.0297354 0.0311665 0.0 
0 0 0.0 
-0.0841936 0.118387 0.0 
0.0787322 0.0863212 0.0 
-0.126163 0.079317 0.0 
-0.121751 0.060712 0.0 
0.00161015 -0.0188688 0.0 
-0.155678 0.0179454 0.0 
0.0823615 0.0653784 0.0 
0.0643859 0.0613435 0.0 
0 0 0.0 
-0.0695701 -0.00910587 0.0 
-0.180351 0.136364 0.0 
0.112217 0.0882309 0.0 
-0.109967 0.119353 0.0 
-0.0482286 -0.0826081 0.0 
-0.216183 0.106349 0.0 
-0.0336628 -0.0641614 0.0 
0 0 0.0 
0.703054 0.0233787 0.0 
-0.233843 0.161935 0.0 
-0.195635 0.084012 0.0 
-0.0288799 0.0242865 0.0 
-0.10413 -0.00741107 0.0 
0.1029 0.0177271 0.0 
-0.156719 0.0375115 0.0 
-0.0439028 0.0224998 0.0 
-0.00792425 0.00664238 0.0 
0.121814 -0.00119119 0.0 
0.396071 0.00374085 0.0 
-0.0184798 0.0781677 0.0 
-0.00572635 0.00584814 0.0 
-0.223831 0.123156 0.0 
0.475495 0.0285365 0.0 
-0.077085 0.130035 0.0 
-0.0461886 0.0534778 0.0 
-0.183606 0.126545 0.0 
0.0691953 0.100398 0.0 
-0.220488 0.153667 0.0 
-0.0638639 0.064059 0.0 
-0.20295 0.145323 0.0 
-0.00802089 0.0751552 0.0 
-0.0341086 -0.0909859 0.0 
0.0283144 -0.111823 0.0 
-0.139438 0.135291 0.0 
-0.150088 0.0198131 0.0 
-0.158057 0.12649 0.0 
-0.0202582 0.10501 0.0 
-0.0128384 0.0116444 0.0 
0 0 0.0 
-0.172296 0.14625 0.0 
-0.0151543 0.0155271 0.0 
-0.0350061 0.016628 0.0 
-0.00533674 0.00521703 0.0 
-0.0395632 0.0418168 0.0 
-0.01244 0.0357571 0.0 
-0.0636422 0.0725214 0.0 
0.00799729 -0.0214403 0.0 
-0.0127492 0.0178305 0.0 
-0.0878251 0.128275 0.0 
0.475188 0.00576688 0.0 
-0.0509294 0.0302333 0.0 
0.647919 0.0229124 0.0 
-0.0277017 -0.0332275 0.0 
-0.00677605 0.00293158 0.0 
0.295345 0.0484387 0.0 
-0.0560904 -0.0621045 0.0 
-0.0696216 0.0323157 0.0 
0.175067 -0.0348311 0.0 
-0.000426935 0.0234956 0.0 
-0.143808 0.122878 0.0 
0.104306 0.0789038 0.0 
-0.129546 0.0255758 0.0 
0.016698 0.0481925 0.0 
-0.0361703 0.0559343 0.0 
0.252229 0.0562727 0.0 
-0.0223574 0.0949886 0.0 
0.0124593 -0.118709 0.0 
0 0 0.0 
-0.0901678 0.0413047 0.0 
-0.0407694 0.0482812 0.0 
-0.0501361 0.0393868 0.0 
-0.0095265 0.00953218 0.0 
-0.0510848 0.0624314 0.0 
-0.00652227 0.0482215 0.0 
-0.230206 0.143818 0.0 
0.228142 0.013608 0.0 
-0.0500578 0.103075 0.0 
-0.1718 0.111572 0.0 
-0.0357646 0.0500596 0.0 
-0.120782 0.132413 0.0 
0.147109 0.0790142 0.0 
0.112169 -0.114978 0.0 
0.260481 0.0589892 0.0 
-0.0239889 0.0221959 0.0 
-0.0449842 0.0108422 0.0 
-0.0252514 0.0270793 0.0 
-0.0676627 0.128583 0.0 
0.184667 0.0222545 0.0 
0.0496519 -0.0773951 0.0 
0.015659 0.00588905 0.0 
-0.0254116 0.0267308 0.0 
-0.0233499 0.0997621 0.0 
0.0152957 0.00325767 0.0 
0 0 0.0 
0.599908 0.0178636 0.0 
-0.17963 0.059856 0.0 
-0.0329971 0.0355326 0.0 
-0.0531835 0.043079 0.0 
0.0580637 -0.111303 0.0 
0.0308537 0.0622975 0.0 
-0.0109673 0.0549073 0.0 
-0.0437411 0.0600992 0.0 
0.211024 0.0670719 0.0 
0.0456675 0.0438123 0.0 
0.100595 0.0854389 0.0 
0.183987 -0.00556011 0.0 
0.0080008 0.0297095 0.0 
0 0 0.0 
0.0124828 0.107273 0.0 
-0.0527658 0.0667132 0.0 
-0.0101668 0.00580784 0.0 
0.0365652 0.0224015 0.0 
-0.0830824 0.00485871 0.0 
-0.0422263 0.0147907 0.0 
0.120829 0.0878454 0.0 
-0.176713 0.0497972 0.0 
-0.046309 0.0981268 0.0 
-0.0438387 -0.0466375 0.0 
0.000307174 0.0906959 0.0 
-0.168183 0.127645 0.0 
-0.0862688 0.0167756 0.0 
-0.205973 0.106942 0.0 
-0.157752 0.063494 0.0 
-0.0139287 -0.037811 0.0 
0.27942 0.0464647 0.0 
0.120292 0.0886628 0.0 
-0.0354117 -0.0369374 0.0 
-0.0733466 0.128016 0.0 
0.0389021 0.00360158 0.0 
-0.112996 0.0718264 0.0 
-0.0460468 0.0567975 0.0 
0.00268054 0.0524237 0.0 
-0.171045 0.0695833 0.0 
0.0121648 0.0837373 0.0 
0.1463 0.0326455 0.0 
-0.103827 0.0622909 0.0 
-0.0633857 0.100752 0.0 
-0.0301683 0.0312187 0.0 
-0.116563 0.134367 0.0 
0.0310373 0.0371543 0.0 
-0.0623545 0.046407 0.0 
-0.129844 0.128673 0.0 
-0.00428093 0.00426719 0.0 
0.082595 -0.127243 0.0 
0.116992 0.0801891 0.0 
0.0292624 0.020464 0.0 
0.116355 0.0872936 0.0 
0.289289 0.017701 0.0 
-0.0370477 0.116162 0.0 
0.0482295 0.0170407 0.0 
-0.0371443 0.104276 0.0 
-0.126513 0.140174 0.0 
-0.0706096 0.114266 0.0 
-0.0132772 0.0132993 0.0 
0.0299506 0.094084 0.0 
0.0352553 0.00183983 0.0 
0.0230613 -0.0367771 0.0 
-0.0797314 0.0980508 0.0 
0.510002 0.0107906 0.0 
-0.222459 0.164756 0.0 
0.555917 0.0266929 0.0 
0 0 0.0 
0 0 0.0 
-0.0691898 0.0620528 0.0 
-0.158822 0.0463005 0.0 
-0.102665 0.116491 0.0 
-0.167196 0.0414675 0.0 
0 0 0.0 
0.00554674 0.061606 0.0 
-0.0583321 0.120266 0.0 
0.069781 0.000627503 0.0 
-0.0191798 -0.00611228 0.0 
-0.0486227 0.0626241 0.0 
-0.155258 0.143711 0.0 
-0.00472459 0.00478945 0.0 
-0.181738 0.0727789 0.0 
-0.0404923 0.0455175 0.0 
0.243528 0.0392063 0.0 
0.10235 0.0617429 0.0 
-0.0265657 0.0157541 0.0 
0.372952 0.0415429 0.0 
0.120676 0.0429137 0.0 
-0.0372896 0.0384942 0.0 
-0.0775099 0.104314 0.0 
-0.0442735 0.0656219 0.0 
0.260755 0.0589831 0.0 
0.0332782 0.057951 0.0 
-0.0740643 0.0219906 0.0 
-0.0297533 0.0515081 0.0 
-0.0571567 0.0390465 0.0 
-0.125627 0.0990955 0.0 
0.0121225 0.0877639 0.0 
0.161327 0.074716 0.0 
-0.0719833 -0.0325131 0.0 
-0.0494507 0.0684431 0.0 
0.138999 0.0832255 0.0 
0.00839185 0.0661398 0.0 
-0.0190477 0.0131677 0.0 
-0.0380174 0.109268 0.0 
-0.0410142 -0.00567347 0.0 
-0.0382414 0.100702 0.0 