<VTKFile type="UnstructuredGrid" version="0.1" byte_order="LittleEndian">
  <UnstructuredGrid>
    <Piece NumberOfPoints="15832" NumberOfCells="31258">
      <Points>
        <DataArray type = "Float64" NumberOfComponents="3" format="ascii">
1.04408 1.005 0.0 
1.0329 1.01459 0.0 
1.04126 1.00661 0.0 
1.11041 1.01645 0.0 
1.04283 1.00646 0.0 
1.16572 1.02119 0.0 
1.10253 1.00823 0.0 
1.12063 1.01269 0.0 
1.04406 1.00575 0.0 
1.0586 1.00583 0.0 
1.08981 1.02175 0.0 
1.0572 1.0042 0.0 
1.0435 1.00603 0.0 
1.04104 1.00672 0.0 
1.0447 1.00458 0.0 
1.04854 1.01793 0.0 
1.11943 1.01112 0.0 
1.04454 1.00556 0.0 
1.1073 1.00881 0.0 
1.11585 1.01021 0.0 
1.13311 1.00993 0.0 
1.11166 1.02431 0.0 
1.10834 1.02103 0.0 
1.0599 1.00346 0.0 
1.1154 1.01418 0.0 
1.0482 1.01549 0.0 
1.05171 1.00997 0.0 
1.05237 1.00764 0.0 
1.04145 1.00704 0.0 
1.04149 1.0065 0.0 
1.10706 1.00831 0.0 
1.1331 1.00856 0.0 
1.06493 1.00825 0.0 
1.1146 1.01147 0.0 
1.04553 1.02115 0.0 
1.13527 1.0095 0.0 
1.05037 1.00551 0.0 
1.07753 1.00916 0.0 
1.05961 1.00587 0.0 
1.04171 1.00639 0.0 
1.11467 1.02297 0.0 
1.04531 1.00414 0.0 
1.16786 1.02384 0.0 
1.04429 1.00486 0.0 
1.15355 1.02176 0.0 
1.10756 1.02264 0.0 
1.04215 1.00615 0.0 
1.09362 1.00868 0.0 
1.09599 1.00827 0.0 
1.04173 1.02044 0.0 
1.09808 1.00891 0.0 
1.08762 1.00761 0.0 
1.03851 1.00779 0.0 
1.03326 1.01542 0.0 
1.0659 1.01599 0.0 
1.04402 1.01313 0.0 
1.06358 1.00589 0.0 
1.06049 1.00464 0.0 
1.05784 1.02412 0.0 
1.15681 1.02373 0.0 
1.04259 1.00591 0.0 
1.06878 1.01234 0.0 
1.04237 1.00603 0.0 
1.06351 1.00651 0.0 
1.03162 1.01151 0.0 
1.04858 1.00305 0.0 
1.12857 1.00908 0.0 
1.04988 1.0156 0.0 
1.06442 1.00353 0.0 
1.04952 1.02219 0.0 
1.03949 1.02007 0.0 
1.05445 1.0004 0.0 
1.11458 1.01054 0.0 
1.05201 1.00411 0.0 
1.152 1.0147 0.0 
1.12057 1.02846 0.0 
1.04022 1.00773 0.0 
1.04302 1.00566 0.0 
1.1624 1.01955 0.0 
1.03967 1.00734 0.0 
1.04977 1.00362 0.0 
1.06468 1.00683 0.0 
1.05416 0.99934 0.0 
1.05291 1.01524 0.0 
1.04387 1.00513 0.0 
1.15925 1.02065 0.0 
1.0399 1.00724 0.0 
1.04641 1.00596 0.0 
1.06283 1.02479 0.0 
1.09387 1.0112 0.0 
1.06597 1.00497 0.0 
1.0866 1.01051 0.0 
1.09579 1.0079 0.0 
1.15305 1.01906 0.0 
1.07363 1.02054 0.0 
1.09115 1.01759 0.0 
1.05478 1.01351 0.0 
1.0423 1.00708 0.0 
1.03932 1.01253 0.0 
1.04546 1.00479 0.0 
1.06814 1.00634 0.0 
1.11267 1.01062 0.0 
1.03944 1.00743 0.0 
1.04036 1.00704 0.0 
1.06569 1.00567 0.0 
1.11246 1.00994 0.0 
1.09438 1.0091 0.0 
1.11839 1.02928 0.0 
1.10803 1.01641 0.0 
1.04013 1.00714 0.0 
1.0418 1.0079 0.0 
1.10745 1.00783 0.0 
1.04511 1.00429 0.0 
1.07929 1.01276 0.0 
1.11574 1.01623 0.0 
1.04866 1.01358 0.0 
1.04782 1.01412 0.0 
1.0457 1.0056 0.0 
1.04345 1.0054 0.0 
1.03169 1.01241 0.0 
1.0324 1.0134 0.0 
1.15793 1.02689 0.0 
1.1146 1.01686 0.0 
1.17747 1.02188 0.0 
1.15893 1.0202 0.0 
1.03113 1.01071 0.0 
1.10924 1.01517 0.0 
1.04366 1.00527 0.0 
1.14758 1.02667 0.0 
1.11002 1.00993 0.0 
1.04984 1.01411 0.0 
1.11355 1.01482 0.0 
1.10933 1.02986 0.0 
1.08334 1.00691 0.0 
1.11516 1.01901 0.0 
1.11266 1.02246 0.0 
1.11801 1.01441 0.0 
1.03119 1.00937 0.0 
1.0848 1.02666 0.0 
1.04655 1.01444 0.0 
1.05734 1.00583 0.0 
1.04727 1.01337 0.0 
1.09582 1.01801 0.0 
1.06132 1.005 0.0 
1.0571 1.00532 0.0 
1.11407 1.01568 0.0 
1.0693 1.01684 0.0 
1.11558 1.02865 0.0 
1.0486 1.01454 0.0 
1.11254 1.00849 0.0 
1.10605 1.02878 0.0 
1.08015 1.02081 0.0 
1.06724 1.02563 0.0 
1.04196 1.01508 0.0 
1.06239 1.01932 0.0 
1.04479 1.01383 0.0 
1.05477 1.00568 0.0 
1.05502 1.00701 0.0 
1.11564 1.00874 0.0 
1.04794 1.0225 0.0 
1.11476 1.01322 0.0 
1.06506 1.01339 0.0 
1.05079 1.00423 0.0 
1.11887 1.012 0.0 
1.11637 1.01159 0.0 
1.1163 1.00907 0.0 
1.04507 1.01328 0.0 
1.06464 1.01469 0.0 
1.05602 0.996331 0.0 
1.08529 1.01938 0.0 
1.04999 1.01341 0.0 
1.046 1.01314 0.0 
1.04293 1.00702 0.0 
1.05358 1.01001 0.0 
1.08878 1.01937 0.0 
1.06368 1.00912 0.0 
1.08573 1.01174 0.0 
1.14852 1.02097 0.0 
1.10282 1.02039 0.0 
1.14536 1.02094 0.0 
1.04324 1.01243 0.0 
1.05079 1.00271 0.0 
1.04504 1.02152 0.0 
1.06676 1.00789 0.0 
1.1185 1.01055 0.0 
1.11258 1.02918 0.0 
1.05973 1.0053 0.0 
1.15264 1.02075 0.0 
1.09986 1.00814 0.0 
1.11758 1.01097 0.0 
1.11158 1.01535 0.0 
1.1553 1.02111 0.0 
1.06238 1.01332 0.0 
1.11864 1.01014 0.0 
1.17765 1.01918 0.0 
1.14828 1.02136 0.0 
1.07971 1.02383 0.0 
1.15146 1.02141 0.0 
1.174 1.0214 0.0 
1.09717 1.02222 0.0 
1.07509 1.01048 0.0 
1.05766 0.993445 0.0 
1.04322 1.02112 0.0 
1.09263 1.00738 0.0 
1.16221 1.02491 0.0 
1.06356 1.00467 0.0 
1.07132 1.01438 0.0 
1.1645 1.02326 0.0 
1.07746 1.00964 0.0 
1.13026 1.01809 0.0 
1.06233 1.00259 0.0 
1.13849 1.0208 0.0 
1.0576 0.99872 0.0 
1.05529 1.01157 0.0 
1.06788 1.02015 0.0 
1.15054 1.02234 0.0 
1.15786 1.0221 0.0 
1.11357 1.01009 0.0 
1.13333 1.02096 0.0 
1.18155 1.02096 0.0 
1.12984 1.01746 0.0 
1.05194 1.01456 0.0 
1.09096 1.01255 0.0 
1.05883 1.01529 0.0 
1.15147 1.02364 0.0 
1.15176 1.02286 0.0 
1.17108 1.01958 0.0 
1.11726 1.01025 0.0 
1.12828 1.01275 0.0 
1.11761 1.00915 0.0 
1.05709 1.00178 0.0 
1.08444 1.00826 0.0 
1.05068 1.00201 0.0 
1.11814 1.00971 0.0 
1.05844 1.00142 0.0 
1.12418 1.01105 0.0 
1.05295 1.01352 0.0 
1.12927 1.01351 0.0 
1.11301 1.01966 0.0 
1.10982 1.01035 0.0 
1.04762 1.00344 0.0 
1.10703 1.00933 0.0 
1.16935 1.02232 0.0 
1.1147 1.00886 0.0 
1.09339 1.02204 0.0 
1.14919 1.01528 0.0 
1.11642 1.00965 0.0 
1.11148 1.00836 0.0 
1.05791 0.997604 0.0 
1.16342 1.01694 0.0 
1.17584 1.01864 0.0 
1.03885 1.01409 0.0 
1.1143 1.00851 0.0 
1.04502 1.00518 0.0 
1.05631 1.01078 0.0 
1.09518 1.01744 0.0 
1.09155 1.01397 0.0 
1.0517 1.01383 0.0 
1.15216 1.01606 0.0 
1.0449 1.00443 0.0 
1.13101 1.00895 0.0 
1.04702 1.01768 0.0 
1.07307 1.01309 0.0 
1.04222 1.00844 0.0 
1.05893 1.00634 0.0 
1.04995 1.00662 0.0 
1.06968 1.01744 0.0 
1.06308 1.02098 0.0 
1.13318 1.00926 0.0 
1.05331 1.00391 0.0 
1.03686 1.0114 0.0 
1.06715 1.01463 0.0 
1.14911 1.01703 0.0 
1.13726 1.01091 0.0 
1.10557 1.01671 0.0 
1.06951 1.01869 0.0 
1.159 1.02132 0.0 
1.13997 1.01729 0.0 
1.04969 1.00288 0.0 
1.08209 1.01939 0.0 
1.06342 1.00707 0.0 
1.10736 1.01565 0.0 
1.05611 1.01956 0.0 
1.04927 1.00514 0.0 
1.05882 1.00031 0.0 
1.05645 1.00633 0.0 
1.05297 0.999971 0.0 
1.05125 1.01855 0.0 
1.04487 1.00956 0.0 
1.10563 1.00912 0.0 
1.09279 1.01809 0.0 
1.12625 1.01799 0.0 
1.09681 1.01879 0.0 
1.05992 1.02063 0.0 
1.13053 1.02054 0.0 
1.05281 1.00534 0.0 
1.10005 1.01004 0.0 
1.03689 1.01218 0.0 
1.1085 1.0242 0.0 
1.05298 1.0032 0.0 
1.08736 1.01771 0.0 
1.03937 1.01341 0.0 
1.09546 1.01575 0.0 
1.05866 0.998038 0.0 
1.05208 1.00713 0.0 
1.17449 1.02002 0.0 
1.05802 1.01061 0.0 
1.07132 1.0069 0.0 
1.10025 1.0172 0.0 
1.07629 1.01422 0.0 
1.06964 1.0219 0.0 
1.11679 1.01572 0.0 
1.05629 0.995392 0.0 
1.09831 1.01206 0.0 
1.04973 1.01837 0.0 
1.07453 1.02223 0.0 
1.05831 0.995594 0.0 
1.09108 1.01879 0.0 
1.05522 1.00642 0.0 
1.04463 1.00644 0.0 
1.05433 1.01781 0.0 
1.10711 1.02369 0.0 
1.04815 1.00385 0.0 
1.14787 1.02191 0.0 
1.16357 1.02804 0.0 
1.13058 1.02159 0.0 
1.03679 1.01058 0.0 
1.1632 1.02734 0.0 
1.05586 1.00343 0.0 
1.09707 1.01229 0.0 
1.07697 1.01876 0.0 
1.16854 1.01921 0.0 
1.04352 1.00691 0.0 
1.18313 1.01921 0.0 
1.06014 1.00841 0.0 
1.05285 1.01871 0.0 
1.05645 0.993746 0.0 
1.04202 1.01204 0.0 
1.04668 1.00456 0.0 
1.15808 1.0187 0.0 
1.04682 1.00794 0.0 
1.05641 0.997081 0.0 
1.05698 0.99321 0.0 
1.0376 1.01254 0.0 
1.18369 1.01847 0.0 
1.10961 1.01703 0.0 
1.1352 1.02136 0.0 
1.04843 1.00236 0.0 
1.0587 0.994564 0.0 
1.05578 0.995143 0.0 
1.10437 1.01215 0.0 
1.13999 1.02134 0.0 
1.16068 1.02591 0.0 
1.05142 1.0075 0.0 
1.07161 1.021 0.0 
1.07367 1.01391 0.0 
1.13994 1.01065 0.0 
1.08265 1.02153 0.0 
1.10017 1.02339 0.0 
1.05416 1.00741 0.0 
1.0677 1.02101 0.0 
1.08381 1.02074 0.0 
1.08261 1.01526 0.0 
1.14785 1.02538 0.0 
1.08443 1.01839 0.0 
1.04796 1.00638 0.0 
1.0777 1.02043 0.0 
1.05315 0.997046 0.0 
1.1029 1.01721 0.0 
1.1756 1.01788 0.0 
1.05522 1.0011 0.0 
1.05252 1.00472 0.0 
1.05081 1.0228 0.0 
1.16009 1.01919 0.0 
1.04028 1.01293 0.0 
1.14621 1.02608 0.0 
1.09121 1.02124 0.0 
1.04219 1.01287 0.0 
1.04945 1.01747 0.0 
1.04985 1.00022 0.0 
1.0859 1.01487 0.0 
1.10884 1.00811 0.0 
1.0448 1.01501 0.0 
1.05399 1.00528 0.0 
1.0926 1.0115 0.0 
1.06422 1.01902 0.0 
1.16718 1.01691 0.0 
1.08699 1.01282 0.0 
1.04755 1.00695 0.0 
1.1133 1.00952 0.0 
1.05398 1.00687 0.0 
1.09207 1.00951 0.0 
1.05509 1.01286 0.0 
1.06235 1.0075 0.0 
1.04997 1.01286 0.0 
1.04942 1.00599 0.0 
1.09463 1.00971 0.0 
1.05301 1.00672 0.0 
1.11405 1.01874 0.0 
1.07474 1.01272 0.0 
1.04308 1.01322 0.0 
1.05017 1.01703 0.0 
1.08356 1.00987 0.0 
1.04613 1.0138 0.0 
1.06621 1.02138 0.0 
1.04417 1.01003 0.0 
1.08897 1.01824 0.0 
1.08269 1.0096 0.0 
1.05499 0.999422 0.0 
1.05076 0.999362 0.0 
1.04827 1.00482 0.0 
1.05674 1.01779 0.0 
1.06444 1.00489 0.0 
1.06187 1.01005 0.0 
1.07501 1.0117 0.0 
1.13266 1.0275 0.0 
1.06695 1.00531 0.0 
1.06255 1.0051 0.0 
1.09478 1.01498 0.0 
1.03433 1.01189 0.0 
1.16431 1.01994 0.0 
1.10165 1.022 0.0 
1.06051 1.00398 0.0 
1.05271 0.99923 0.0 
1.08872 1.01127 0.0 
1.04444 1.01442 0.0 
1.14307 1.02212 0.0 
1.07691 1.01804 0.0 
1.05644 0.994534 0.0 
1.16323 1.01746 0.0 
1.09557 1.01656 0.0 
1.16894 1.02524 0.0 
1.13625 1.02732 0.0 
1.05637 1.00691 0.0 
1.04388 1.01528 0.0 
1.11177 1.01202 0.0 
1.15447 1.02499 0.0 
1.09394 1.01427 0.0 
1.07148 1.01971 0.0 
1.09364 1.0118 0.0 
1.08794 1.01176 0.0 
1.08508 1.01237 0.0 
1.05315 1.00728 0.0 
1.09308 1.02267 0.0 
1.05309 1.00603 0.0 
1.05436 1.01089 0.0 
1.06951 1.00897 0.0 
1.09803 1.0169 0.0 
1.1112 1.0103 0.0 
1.12908 1.02115 0.0 
1.05515 1.01728 0.0 
1.10469 1.02227 0.0 
1.11036 1.02194 0.0 
1.09699 1.01167 0.0 
1.05386 1.00213 0.0 
1.08795 1.02293 0.0 
1.09821 1.0161 0.0 
1.04736 1.00429 0.0 
1.09579 1.01209 0.0 
1.16315 1.01856 0.0 
1.05866 1.01133 0.0 
1.05517 1.00192 0.0 
1.03655 1.00978 0.0 
1.0983 1.01827 0.0 
1.04605 1.01686 0.0 
1.08815 1.01019 0.0 
1.05095 1.00484 0.0 
1.05503 1.00491 0.0 
1.06118 1.01554 0.0 
[...]
<PointData>
  <DataArray type = "Float64" Name="Vitesse" NumberOfComponents="3" format="ascii">
0 0 0.0 
0.831588 0.0521446 0.0 
0 0 0.0 
0.606517 -0.0327032 0.0 
-0.00537208 0.00391093 0.0 
1.00711 -0.0942279 0.0 
-0.0563071 -0.0711422 0.0 
0.313731 -0.000647629 0.0 
-0.00883571 0.00596125 0.0 
0.0296404 0.0407532 0.0 
0.999271 -0.0277559 0.0 
-0.0128443 0.0503944 0.0 
-0.00697111 0.00488315 0.0 
0 0 0.0 
0 0 0.0 
0.973718 0.0353785 0.0 
0.187882 0.0076977 0.0 
-0.0104798 0.00770569 0.0 
-0.020957 -0.0420674 0.0 
0.101766 -0.000104881 0.0 
0.26131 0.0421323 0.0 
1.04962 -0.0304238 0.0 
0.92289 -0.0321188 0.0 
-0.0133494 0.0500141 0.0 
0.413805 -0.0207025 0.0 
0.7308 0.0141173 0.0 
0.164927 0.0120349 0.0 
0.0479352 0.0268772 0.0 
-0.00187738 0.00115955 0.0 
0 0 0.0 
-0.0487454 -0.042307 0.0 
0.195844 0.0589148 0.0 
0.150171 0.0101196 0.0 
0.182437 -0.0126172 0.0 
1.16462 0.0689549 0.0 
0.26618 0.0458496 0.0 
-0.0168314 0.0324341 0.0 
0.196336 -0.0525277 0.0 
0.0366929 0.0387431 0.0 
0 0 0.0 
1.00592 -0.0319824 0.0 
0 0 0.0 
1.04787 -0.0954964 0.0 
0 0 0.0 
1.0144 -0.0775075 0.0 
0.9972 -0.0307348 0.0 
0 0 0.0 
0.0233315 -0.102369 0.0 
-0.0243211 -0.101053 0.0 
1.16914 0.0799741 0.0 
0.00460579 -0.0897332 0.0 
0.0171333 -0.109737 0.0 
0 0 0.0 
0.93896 0.0675114 0.0 
0.70706 -0.00740795 0.0 
0.465459 -0.00108579 0.0 
0.0580245 0.02543 0.0 
0.0114568 0.0430723 0.0 
1.1725 0.0441471 0.0 
1.05325 -0.0828948 0.0 
0 0 0.0 
0.402803 -0.0152802 0.0 
0 0 0.0 
0.0768237 0.023088 0.0 
0.325517 0.000941129 0.0 
-0.0195352 0.0178926 0.0 
0.164778 0.0506097 0.0 
0.730788 0.013428 0.0 
0.00247079 0.0281565 0.0 
1.16889 0.0610658 0.0 
1.17423 0.0881849 0.0 
-0.0413676 0.0458261 0.0 
0.115122 -0.00805137 0.0 
-0.0294968 0.0402552 0.0 
0.73115 -0.0480252 0.0 
1.11557 -0.0346045 0.0 
0.0044613 -0.000440749 0.0 
0 0 0.0 
0.966979 -0.0891993 0.0 
0 0 0.0 
-0.0285291 0.029099 0.0 
0.0928647 0.0168249 0.0 
-0.035852 0.0378197 0.0 
0.673963 0.00903352 0.0 
0 0 0.0 
0.992597 -0.0856502 0.0 
0 0 0.0 
-0.0154492 0.0177722 0.0 
1.16888 0.0329211 0.0 
0.214431 -0.0790253 0.0 
0.0390984 0.0151417 0.0 
0.223965 -0.0777691 0.0 
-0.0460517 -0.104351 0.0 
0.933134 -0.0719059 0.0 
1.00436 -0.00760391 0.0 
0.745264 -0.0432176 0.0 
0.483664 0.00383376 0.0 
-0.0034328 0.00383071 0.0 
0.413212 -0.00533923 0.0 
-0.0104809 0.00799286 0.0 
0.0844887 -0.00107417 0.0 
0.112118 -0.0174675 0.0 
0 0 0.0 
0 0 0.0 
0.0584802 0.0154079 0.0 
0.0649127 -0.0155417 0.0 
0.0463859 -0.0976323 0.0 
1.1224 -0.0324609 0.0 
0.604488 -0.0358707 0.0 
0 0 0.0 
0.0104399 0.0021712 0.0 
-0.071062 -0.0381593 0.0 
0 0 0.0 
0.423971 -0.04647 0.0 
0.593723 -0.0252397 0.0 
0.502182 0.00301026 0.0 
0.569953 0.00531702 0.0 
-0.0157078 0.0140044 0.0 
0 0 0.0 
0.487101 0.0141708 0.0 
0.65063 0.0297612 0.0 
1.08634 -0.0822075 0.0 
0.643605 -0.0276971 0.0 
1.01393 -0.1038 0.0 
0.980324 -0.0846141 0.0 
0.193607 -0.00378926 0.0 
0.49585 -0.0349976 0.0 
0 0 0.0 
1.09208 -0.0689724 0.0 
0.0553046 -0.0289581 0.0 
0.55903 0.00510509 0.0 
0.467001 -0.026061 0.0 
1.13081 -0.02511 0.0 
0.0259138 -0.101108 0.0 
0.803674 -0.0301677 0.0 
0.986827 -0.031546 0.0 
0.444009 -0.0160464 0.0 
0 0 0.0 
1.14049 -0.00782968 0.0 
0.616513 0.00721089 0.0 
0.0223443 0.0417882 0.0 
0.481286 0.00169588 0.0 
0.758329 -0.0421084 0.0 
0.0236432 0.0387399 0.0 
0.00857689 0.0447776 0.0 
0.544057 -0.0265509 0.0 
0.769073 -0.012543 0.0 
1.11896 -0.0305376 0.0 
0.615518 0.0072522 0.0 
-0.0155182 -0.00704449 0.0 
1.12686 -0.0236809 0.0 
0.991181 -0.019052 0.0 
1.16804 0.0238112 0.0 
0.743695 0.0183389 0.0 
0.984211 0.0134138 0.0 
0.550829 0.00342507 0.0 
0.00379668 0.0416494 0.0 
0.0422921 0.0339837 0.0 
0.0187767 0.00940363 0.0 
1.18007 0.0671403 0.0 
0.327004 -0.0193031 0.0 
0.480293 -0.00754238 0.0 
-0.0289538 0.0352807 0.0 
0.247946 -0.000687816 0.0 
0.200311 -0.00669389 0.0 
0.0400966 0.0104694 0.0 
0.479239 0.000336485 0.0 
0.592737 -0.00693768 0.0 
-0.0286624 0.0295461 0.0 
0.889166 -0.0320878 0.0 
0.47862 0.00308662 0.0 
0.457982 0.000209136 0.0 
-0.00354572 0.00533644 0.0 
0.177581 0.0137515 0.0 
0.874824 -0.0351478 0.0 
0.185262 0.00987808 0.0 
0.32011 -0.067087 0.0 
0.98624 -0.0678147 0.0 
0.894919 -0.0341525 0.0 
0.978873 -0.0621139 0.0 
0.380213 -0.00440603 0.0 
-0.0309957 0.0317376 0.0 
1.17548 0.0727306 0.0 
0.141285 0.00369313 0.0 
0.14256 0.0087014 0.0 
1.1246 -0.0279574 0.0 
0.0226177 0.0417776 0.0 
0.987351 -0.0748593 0.0 
-0.0545515 -0.0860314 0.0 
0.163661 0.00205831 0.0 
0.511799 -0.0304694 0.0 
1.00014 -0.0797092 0.0 
0.471631 -0.00251094 0.0 
0.118302 0.0126336 0.0 
0.965314 -0.105163 0.0 
0.997523 -0.0680798 0.0 
1.10523 -0.00718115 0.0 
1.00373 -0.0737034 0.0 
1.00884 -0.102209 0.0 
0.997973 -0.0297963 0.0 
0.281151 -0.0373733 0.0 
-0.0143932 0.0146018 0.0 
1.17654 0.0779211 0.0 
-0.0506892 -0.115773 0.0 
1.0647 -0.0888091 0.0 
0.0250469 0.0301702 0.0 
0.561433 -0.0223178 0.0 
1.04303 -0.0925454 0.0 
0.224408 -0.0502236 0.0 
0.788722 -0.0292861 0.0 
-0.0190705 0.0431679 0.0 
0.95721 -0.0500021 0.0 
-0.0510092 0.0560128 0.0 
0.30309 0.0071556 0.0 
1.0079 0.0040578 0.0 
1.02546 -0.0731094 0.0 
1.0246 -0.0845134 0.0 
0.0804555 -0.01056 0.0 
0.950619 -0.04305 0.0 
0.996434 -0.105863 0.0 
0.745839 -0.0257092 0.0 
0.602362 0.00657918 0.0 
0.346999 -0.0683177 0.0 
0.657691 0.00322095 0.0 
1.0518 -0.0752256 0.0 
1.03758 -0.0754357 0.0 
0.973856 -0.0999763 0.0 
0.114308 0.00599543 0.0 
0.384191 0.0101013 0.0 
0.0545119 0.0164418 0.0 
-0.0410474 0.0575228 0.0 
0.0927502 -0.0918506 0.0 
-0.0273604 0.0269225 0.0 
0.0898107 0.014036 0.0 
-0.0416816 0.0584495 0.0 
0.225964 0.0216663 0.0 
0.486769 0.00401015 0.0 
0.449906 0.00331933 0.0 
0.843619 -0.0314145 0.0 
0.0833484 -0.0310843 0.0 
-0.0152691 0.0134243 0.0 
0.00990806 -0.0445334 0.0 
1.0262 -0.0980229 0.0 
0.0171391 0.00338574 0.0 
1.00047 -0.0290709 0.0 
0.742109 -0.0448053 0.0 
0.0721823 0.00659043 0.0 
-0.0275082 -0.0131333 0.0 
-0.0504085 0.0529967 0.0 
0.886599 -0.0857695 0.0 
0.95303 -0.103967 0.0 
0.646511 0.0121259 0.0 
-0.00242102 0.00354636 0.0 
-0.0108138 0.00801513 0.0 
0.246331 0.0106527 0.0 
0.718939 -0.044183 0.0 
0.459029 -0.0597837 0.0 
0.522155 0.00447362 0.0 
0.801073 -0.0571438 0.0 
0 0 0.0 
0.187876 0.0540059 0.0 
0.966764 0.0367096 0.0 
0.459335 -0.0280443 0.0 
0.0307411 0.00127487 0.0 
0.0461954 0.037178 0.0 
0.00309914 0.0275711 0.0 
0.815635 -0.0113375 0.0 
1.07091 0.0196661 0.0 
0.228837 0.0503432 0.0 
-0.0296397 0.0450996 0.0 
0.269871 -0.0113203 0.0 
0.586126 -0.0122148 0.0 
0.831664 -0.0553024 0.0 
0.36493 0.02608 0.0 
0.632622 -0.038579 0.0 
0.909182 -0.0060832 0.0 
1.00817 -0.0857098 0.0 
0.794123 -0.0379813 0.0 
-0.0260024 0.0251215 0.0 
0.903447 -0.0280966 0.0 
0.095884 0.0207456 0.0 
0.540672 -0.0376161 0.0 
1.03334 0.0297569 0.0 
-0.0227607 0.0290822 0.0 
-0.0487298 0.0593108 0.0 
0.0304491 0.0389126 0.0 
-0.0309785 0.0319268 0.0 
0.9986 0.0344427 0.0 
0.103115 0.00234147 0.0 
-0.00442279 -0.0522971 0.0 
0.77504 -0.0416601 0.0 
0.763909 -0.0260267 0.0 
0.809667 -0.039367 0.0 
1.06967 0.0260415 0.0 
0.924541 -0.0384755 0.0 
-0.0119316 0.0397031 0.0 
0.0753355 -0.0765671 0.0 
0.381439 -0.00647506 0.0 
1.04894 -0.0294745 0.0 
-0.035079 0.0444593 0.0 
0.768759 -0.0408032 0.0 
0.540229 0.00257679 0.0 
0.585973 -0.0504667 0.0 
-0.0537025 0.0564428 0.0 
0.0282725 0.029467 0.0 
0.983262 -0.102766 0.0 
0.243122 0.0110218 0.0 
0.105263 -0.0218338 0.0 
0.684414 -0.0424649 0.0 
0.540951 -0.0349552 0.0 
1.08128 0.0070861 0.0 
0.552873 -0.0225304 0.0 
-0.0213966 0.0219192 0.0 
0.254589 -0.0678938 0.0 
0.997559 0.0362499 0.0 
1.07497 -0.0027747 0.0 
-0.0431165 0.0431899 0.0 
0.828931 -0.0386784 0.0 
0.0252255 0.0378626 0.0 
-0.0105457 0.0112027 0.0 
0.918345 0.022428 0.0 
1.03499 -0.0295932 0.0 
-0.0219485 0.0201406 0.0 
1.01217 -0.0682108 0.0 
1.08569 -0.0863381 0.0 
0.969815 -0.0411244 0.0 
0.168342 -0.0126764 0.0 
1.08278 -0.0870021 0.0 
-0.0286965 0.0525199 0.0 
0.282474 -0.0681549 0.0 
0.883453 -0.0219167 0.0 
0.963787 -0.0970825 0.0 
-0.00541953 0.00751733 0.0 
0.964175 -0.107181 0.0 
0.131407 0.022048 0.0 
0.998793 0.0316506 0.0 
0 0 0.0 
0.334965 -0.00674491 0.0 
-0.0170796 0.0144164 0.0 
0.933782 -0.0806136 0.0 
0.0286358 0.0144142 0.0 
-0.0388003 0.0405706 0.0 
0 0 0.0 
0.429934 -0.00418177 0.0 
0.948839 -0.107796 0.0 
0.655269 -0.0335292 0.0 
0.970662 -0.0465002 0.0 
-0.0111633 0.010096 0.0 
-0.038144 0.0374396 0.0 
-0.0110858 0.0113268 0.0 
0.231788 -0.0527506 0.0 
0.980458 -0.0537202 0.0 
1.0761 -0.086209 0.0 
0.0369172 0.0261922 0.0 
1.03543 -0.00120029 0.0 
0.521669 -0.0288777 0.0 
0.382984 0.0242601 0.0 
1.01548 -0.0200196 0.0 
1.03585 -0.0282292 0.0 
0.0506309 0.03068 0.0 
1.05236 0.00820481 0.0 
0.972737 -0.0248403 0.0 
0.602506 -0.0449388 0.0 
1.07823 -0.0698706 0.0 
0.828433 -0.0353992 0.0 
-0.0088466 0.0230745 0.0 
0.981752 -0.0162831 0.0 
0 0 0.0 
0.678339 -0.0402711 0.0 
0.934108 -0.103421 0.0 
-0.044 0.0522752 0.0 
-0.0222697 0.040946 0.0 
1.17461 0.0594091 0.0 
0.953384 -0.0851027 0.0 
0.462235 -0.00270754 0.0 
1.08705 -0.0673106 0.0 
0.970746 -0.0302383 0.0 
0.441461 -0.00315271 0.0 
0.925478 0.029213 0.0 
0 0 0.0 
0.558997 -0.0511842 0.0 
-0.0525861 -0.029487 0.0 
0.70304 0.0131614 0.0 
-0.00823545 0.0423837 0.0 
0.249215 -0.0769893 0.0 
0.955325 0.00767793 0.0 
0.894619 -0.0919932 0.0 
0.393652 -0.0625849 0.0 
0.00195048 0.0201833 0.0 
0.0442342 -0.00874329 0.0 
0.0312259 0.0338439 0.0 
0.0987294 -0.0950556 0.0 
0.419111 0.00399082 0.0 
0.106603 0.0220907 0.0 
0.416953 0.00230743 0.0 
-0.0118903 0.0283326 0.0 
0.0894166 -0.0918719 0.0 
0.0209892 0.0334163 0.0 
0.784562 -0.0304875 0.0 
0.430854 -0.0333915 0.0 
0.482259 -0.000806154 0.0 
0.87827 0.0240757 0.0 
0.203465 -0.0743397 0.0 
0.538996 0.00325061 0.0 
1.0749 0.0134517 0.0 
0.134301 -0.00119398 0.0 
0.79961 -0.0398623 0.0 
0.192857 -0.0729197 0.0 
-0.0413681 0.044892 0.0 
0 0 0.0 
-0.0240092 0.0247093 0.0 
0.901207 0.0175293 0.0 
0.0334433 0.0246537 0.0 
0.227202 0.00930121 0.0 
0.359527 -0.0354091 0.0 
1.10411 -0.0480145 0.0 
0.0501254 0.00812983 0.0 
0.0316867 0.0333829 0.0 
0.52505 -0.0542517 0.0 
0.361358 -0.00404779 0.0 
0.979151 -0.0923541 0.0 
0.978898 -0.0312687 0.0 
-0.00173022 0.0461167 0.0 
-0.0224251 0.0225499 0.0 
0.263043 -0.0755694 0.0 
0.630236 0.0079823 0.0 
1.01081 -0.0603574 0.0 
0.833628 -0.0246239 0.0 
-0.0122824 0.0124934 0.0 
0.903852 -0.0866569 0.0 
0.650435 -0.047178 0.0 
1.06075 -0.0946827 0.0 
1.10177 -0.0525609 0.0 
0.0475601 0.0352384 0.0 
0.745591 0.0171478 0.0 
0.216735 -0.0259478 0.0 
1.071 -0.0791973 0.0 
0.470493 -0.0581444 0.0 
0.967241 -0.00627909 0.0 
0.26627 -0.0742548 0.0 
0.306239 -0.0708173 0.0 
0.370624 -0.0621974 0.0 
0.0394609 0.0302802 0.0 
1.02646 -0.0271904 0.0 
0.00339705 0.0372414 0.0 
0.244934 0.00964121 0.0 
0.197161 -0.0122611 0.0 
0.667774 -0.0448998 0.0 
0.0835901 -0.0237147 0.0 
0.948456 -0.0385649 0.0 
0.866299 0.017499 0.0 
0.985417 -0.0310301 0.0 
0.965447 -0.0314681 0.0 
0.22969 -0.0727086 0.0 
-0.0396535 0.0475069 0.0 
1.05203 -0.022156 0.0 
0.603557 -0.0475737 0.0 
-0.0198769 0.0175509 0.0 
0.274285 -0.0708093 0.0 
0.939497 -0.0888693 0.0 
0.29763 0.00735575 0.0 
-0.0414511 0.0528835 0.0 
0.0861932 -0.0110372 0.0 
0.769121 -0.0405314 0.0 
0.901542 0.0303381 0.0 
0.187115 -0.0837475 0.0 
-0.023971 0.0355682 0.0 
-0.010314 0.0456451 0.0 
0.676384 0.000376737 0.0 
0.732228 0.00304181 0.0 
0.931357 0.0161658 0.0 
0.675882 -0.020102 0.0 
0.0615325 0.00464915 0.0 
0.913712 -0.0801529 0.0 
0.99647 -0.103381 0.0 
0.717552 -0.00143367 0.0 
-0.0207009 0.0195897 0.0 
0.929922 -0.107559 0.0 
0.424765 -0.0550932 0.0 
0.912766 -0.094059 0.0 
0.012611 0.0421546 0.0 
1.00558 0.0742015 0.0 
0.498254 -0.0560072 0.0 
0.0128719 0.031872 0.0 
0.574487 -0.0520372 0.0 
0.932596 -0.0965417 0.0 
0.757779 -0.0304357 0.0 
0.976195 -0.0307737 0.0 
0.949929 0.0120658 0.0 
-0.00379 0.046638 0.0 
-0.0370347 0.0390477 0.0 
0.992068 -0.094266 0.0 
0.923097 -0.0877227 0.0 
0.793009 0.00212252 0.0 
0.271157 -0.0751336 0.0 
1.06318 0.00453022 0.0 
0.408532 -0.0569639 0.0 
0.962281 -0.0319913 0.0 
0.797448 -0.0248305 0.0 
0.00247705 0.0251519 0.0 
0.937111 -0.0350313 0.0 
0.895377 0.00696303 0.0 
0.554176 -0.0154442 0.0 
0.941715 0.00160232 0.0 
0.700998 0.00385085 0.0 
0.259901 -0.0506968 0.0 
0.700807 -0.0331968 0.0 
0.395315 -0.0056633 0.0 
0.829492 -0.0304727 0.0 
0.617157 0.000536726 0.0 
0.549132 -0.0536272 0.0 
0.965346 0.0258475 0.0 
-0.00519415 0.0315661 0.0 
0.9518 -0.0930939 0.0 
-0.0318587 0.0349842 0.0 
0.362161 0.00457668 0.0 
0.723967 -0.0424703 0.0 
0.365071 -0.00795316 0.0 
0.786004 0.00618391 0.0 
-0.028717 0.0290447 0.0 
-0.0110993 0.0112071 0.0 
0.902592 -0.0403708 0.0 
0.107825 0.0261568 0.0 
0.254388 -0.0146281 0.0 
0.947852 -0.0992606 0.0 
0.0207946 0.0241883 0.0 
0.240598 -0.0785601 0.0 
-0.0415241 -0.0193062 0.0 
0.916879 -0.101313 0.0 
0.737054 0.011399 0.0 
0.193133 0.00911808 0.0 
0.997588 -0.0612188 0.0 
0.758647 -0.00712752 0.0 
0.505651 -0.0535478 0.0 
0.121054 -0.012199 0.0 
0.15598 0.00978812 0.0 
0.696331 0.00600108 0.0 
0.660995 -0.043269 0.0 
0.0714155 -0.00270584 0.0 
1.0381 -0.0871525 0.0 
0.876931 0.0119794 0.0 
0.961421 -0.0231102 0.0 
0.15108 0.0173135 0.0 
0.127062 -0.0904904 0.0 
0.355378 -0.0440076 0.0 
-0.0452193 0.0468261 0.0 
0.337464 0.0182355 0.0 
0.970364 -0.013598 0.0 
0.264318 0.0257345 0.0 
1.06931 -0.0103457 0.0 
1.03035 -0.0240286 0.0 
-0.0279592 -0.0728968 0.0 
0.134542 -0.0356887 0.0 
0.628928 -0.0490441 0.0 
0.127747 0.0440601 0.0 
0.0125283 0.0210853 0.0 
0.105312 -0.00464055 0.0 
0.931754 -0.0450761 0.0 
0.704964 -0.0353945 0.0 
0.240777 -0.00817511 0.0 
-0.00506735 0.0487693 0.0 
0.280025 -0.0110416 0.0 
0.846725 -0.0304308 0.0 
-0.0432791 0.0564529 0.0 
1.05514 -0.00437053 0.0 
0.833463 0.0068994 0.0 
-0.0456734 0.0586589 0.0 
0.218921 -0.0628511 0.0 
0.787434 0.0167686 0.0 
0.0175184 -0.00368465 0.0 
0.55564 0.00126685 0.0 
1.10541 -0.0358544 0.0 
0.0100147 0.030988 0.0 
0 0 0.0 
-0.0480415 0.0539845 0.0 
-0.0457014 0.0484015 0.0 
0.992908 -0.0228045 0.0 
0.663569 -0.0352577 0.0 
0.0102972 -0.109974 0.0 
-0.0178093 0.0153976 0.0 
0.710904 0.015623 0.0 
1.01924 -0.0949964 0.0 
0.915358 -0.106536 0.0 
0.797967 -0.0404552 0.0 
0.867817 -0.036591 0.0 
-0.0484234 0.0525308 0.0 
0.197468 -0.055303 0.0 
1.09716 -0.0764909 0.0 
0.947556 -0.0214484 0.0 
0.531658 -0.0516346 0.0 
0.396084 -0.0529182 0.0 
1.16 0.0971052 0.0 
1.06084 -0.0670647 0.0 
0.754359 0.0167998 0.0 
1.02264 -0.0641481 0.0 
0.987726 -0.0395383 0.0 
0.922177 -0.0335337 0.0 
0.658347 -0.0477111 0.0 
0.21452 0.0118434 0.0 
0.398317 -0.04009 0.0 
0 0 0.0 
0.346941 -0.0595844 0.0 
-0.0379237 0.0407333 0.0 
0.632147 -0.00321319 0.0 
0.808641 -0.0287705 0.0 
0.0426769 -0.0889415 0.0 
1.06012 0.084383 0.0 
0.522752 -0.0184038 0.0 
0 0 0.0 
0.192511 -0.0487364 0.0 
0.112365 0.0391985 0.0 
1.08914 -0.0524318 0.0 
0.842891 -0.0382538 0.0 
-0.0122031 0.0123562 0.0 
0.745167 -0.0350238 0.0 
0.34357 -0.00881482 0.0 
-0.0342536 0.0360145 0.0 
1.01237 -0.0297929 0.0 
0.670268 0.0109601 0.0 
0.698284 -0.0368327 0.0 
0.846237 -0.0316725 0.0 
-0.0115364 0.0102657 0.0 
0.670607 -0.0454984 0.0 
0.136181 -0.0445571 0.0 
-0.0185463 0.0228724 0.0 
0.313235 -0.063799 0.0 
0.312176 -0.0650735 0.0 
-0.0234704 0.0237948 0.0 
-0.0556306 -0.0786251 0.0 
-0.0462725 0.0566433 0.0 
0.165606 -0.0541064 0.0 
0.602868 -0.050851 0.0 
0.484042 -0.0363409 0.0 
1.00452 0.0138687 0.0 
0.968992 -0.0808795 0.0 
0.246474 -0.0538215 0.0 
1.04592 -0.0131918 0.0 
0.891192 0.0317714 0.0 
0.741551 0.00941116 0.0 
0 0 0.0 
0.487682 0.00348301 0.0 
0.156368 -0.0549313 0.0 
-0.0495567 0.0572128 0.0 
0.215462 -0.0766658 0.0 
0 0 0.0 
0.52699 -0.0553371 0.0 
0.886697 -0.0355716 0.0 
0.957595 0.0288954 0.0 
0.167364 0.0607648 0.0 
0.567342 0.00552476 0.0 
-0.0054096 -0.102232 0.0 
-0.0528252 0.0588427 0.0 
0.713874 -0.044572 0.0 
0.460321 -0.0565651 0.0 
0.548537 -0.0452077 0.0 
0.673486 -0.0281141 0.0 
0.753723 -0.00238331 0.0 
0.730477 -0.0198792 0.0 
0.733526 -0.0419356 0.0 
0 0 0.0 
0.813714 0.0239436 0.0 
0.053985 -0.0961123 0.0 
0 0 0.0 
0.831567 -0.0325246 0.0 
0.372097 -0.0647258 0.0 
0 0 0.0 
0.385914 -0.0472485 0.0 
0.0943991 -0.0431567 0.0 
0.167222 0.0375608 0.0 
0.161564 0.0188277 0.0 
-0.0331614 -0.0640318 0.0 
0.871076 -0.0286865 0.0 
0.566341 -0.00817413 0.0 
-0.0233046 0.0534531 0.0 
1.05849 0.0208165 0.0 
0.351893 -0.0582452 0.0 
0.7972 0.0109006 0.0 
1.0002 0.0239923 0.0 
0.952894 -0.0321295 0.0 
0.472032 -0.0456633 0.0 
0.0503549 0.0221057 0.0 
0.0237179 0.0167093 0.0 
-0.010975 0.00851991 0.0 
0.0497816 0.0354312 0.0 
0.720135 -0.0134752 0.0 
0.593669 -0.0389192 0.0 
0.0640201 0.0331791 0.0 
0 0 0.0 
-0.0142743 0.0515342 0.0 
-0.00823345 -0.0284103 0.0 
0.574107 -0.00195874 0.0 
0.765116 -0.0420339 0.0 
0.496448 -0.0493489 0.0 
0.422194 -0.0589512 0.0 
0.686485 0.0139861 0.0 
0.742546 0.006561 0.0 
0.168491 -0.0050309 0.0 
0.893138 -0.0556949 0.0 
-0.0137486 0.0132055 0.0 
-0.0103288 0.0159032 0.0 
0.836621 -0.0626798 0.0 
0.608942 -0.0497221 0.0 
-0.0348909 0.0352223 0.0 
-0.0434542 0.0465844 0.0 
0.722342 -0.0330086 0.0 
0.848756 -0.0368935 0.0 
1.02991 -0.0280201 0.0 
0.837617 -0.0443441 0.0 
0.0022139 0.0117478 0.0 
0.812412 -0.00503366 0.0 
0.558705 0.00323234 0.0 
0.0832826 0.0121725 0.0 
0.290289 -0.0627697 0.0 
0.788122 -0.00229302 0.0 
1.02478 0.00197188 0.0 
0.769927 -0.0480057 0.0 
0.815402 -0.0376496 0.0 
-0.0108547 0.0101484 0.0 
-0.0295979 0.0305495 0.0 
0.354231 -0.0518295 0.0 
0.493257 -0.0221772 0.0 
0.456178 -0.00287246 0.0 
-0.0497171 0.0590076 0.0 
0.388147 -0.0580834 0.0 
0.820692 -0.0646911 0.0 
0.0350253 0.0199477 0.0 
0.939462 -0.0328736 0.0 
0.0843934 0.0283303 0.0 
0.0559989 0.0236187 0.0 
0.0420894 -0.00435927 0.0 
0.678041 -0.01995 0.0 
0.077361 -0.0984485 0.0 
0.0938547 -0.0935403 0.0 
0.914856 -0.0547545 0.0 
0.934763 -0.0170274 0.0 
0.0729142 -0.00367967 0.0 
0.593587 -0.016433 0.0 
0.0862467 -0.088392 0.0 
0.874906 0.00845722 0.0 
0.288218 -0.0733193 0.0 
0.0209456 -0.0976911 0.0 
0.201942 -0.0816966 0.0 
0.00338492 -0.0203386 0.0 
0.0579105 0.0348867 0.0 
0.203277 -0.00944459 0.0 
0.195256 -0.0225886 0.0 
-0.0221723 0.0219735 0.0 
0 0 0.0 
0.487621 -0.0496581 0.0 
0 0 0.0 
0.852813 -0.00472705 0.0 
-0.0250171 0.0239095 0.0 
-0.0111473 0.0204187 0.0 
0.63211 -0.0267516 0.0 
0.176721 -0.0248263 0.0 
1.04176 -0.0285 0.0 
0.811419 0.0248144 0.0 
0 0 0.0 
1.00648 0.0448006 0.0 
0.674462 -0.0245864 0.0 
0.660232 0.0123456 0.0 
1.05456 -0.0254814 0.0 
-0.0182454 0.019578 0.0 
0.049751 0.0332835 0.0 
0.758009 0.00166585 0.0 
0.30077 0.0413536 0.0 
0.297962 0.0374996 0.0 
0.94985 -0.00235672 0.0 
0.0441302 0.0210876 0.0 
0.69527 -0.0344616 0.0 
0 0 0.0 
1.10483 -0.0585922 0.0 
-0.0140651 0.013891 0.0 
0.951591 -0.0754231 0.0 
0.0798126 -0.0839981 0.0 
0.959715 -0.0591203 0.0 
0.956394 -0.0318167 0.0 
0.967209 -0.0688354 0.0 
0.0170345 0.0225581 0.0 
0.969419 -0.0751329 0.0 
0.0592067 0.000991613 0.0 
0.144256 -0.00771232 0.0 
0.961451 -0.0294922 0.0 
0.936857 0.0319581 0.0 
0.921035 -0.0116553 0.0 
0.918677 -0.0637301 0.0 
0.889801 -0.0796198 0.0 
0.953379 0.0363814 0.0 
0.910252 0.00203475 0.0 
0.16205 -0.022009 0.0 
0.798477 0.0139914 0.0 
0.414355 -0.0608099 0.0 
-0.0362129 0.0496338 0.0 
0.894186 -0.0640061 0.0 
0.144503 -0.0873834 0.0 
0 0 0.0 
0.27888 -0.0726449 0.0 
0.934428 -0.0596592 0.0 
-0.0152986 0.0149796 0.0 
-0.00968437 0.00924939 0.0 
-0.0172462 0.0259314 0.0 
0.0751042 -0.0836943 0.0 
0.424896 -0.0423308 0.0 
0.675666 0.00767844 0.0 
0.896244 -0.0360323 0.0 
0.236907 -0.033553 0.0 
1.0581 -0.0171393 0.0 
0.869863 -0.0796705 0.0 
0.0234677 -0.000826595 0.0 
0.0362008 -0.0736356 0.0 
0.276596 -0.0268997 0.0 
-0.0327713 0.0394423 0.0 
0.00317423 0.0369794 0.0 
0.861455 -0.0653793 0.0 
0.234642 -0.0788472 0.0 
0.668853 -0.0380053 0.0 
0 0 0.0 
-0.0108132 0.00877915 0.0 
0.975315 0.00667552 0.0 
0.325385 -0.0500241 0.0 
0.757668 -0.0358378 0.0 
0.164084 -0.0845778 0.0 
0.232691 -0.0078093 0.0 
0.534436 -0.00385216 0.0 
-0.0233869 0.0536937 0.0 
0.348154 -0.0181628 0.0 
0.796457 -0.042281 0.0 