<VTKFile type="UnstructuredGrid" version="0.1" byte_order="LittleEndian">
  <UnstructuredGrid>
    <Piece NumberOfPoints="15613" NumberOfCells="30825">
      <Points>
        <DataArray type = "Float64" NumberOfComponents="3" format="ascii">
1.16104 0.997702 0.0 
1.20744 0.979345 0.0 
1.18261 0.983907 0.0 
1.16227 1.0077 0.0 
1.21378 0.979629 0.0 
1.19765 0.982374 0.0 
1.18892 0.987078 0.0 
1.16781 0.991905 0.0 
1.17348 0.983173 0.0 
1.17879 0.985155 0.0 
1.16043 0.993952 0.0 
1.15929 0.992683 0.0 
1.13306 1.00284 0.0 
1.14555 1.00855 0.0 
1.11792 1.00148 0.0 
1.1819 0.974485 0.0 
1.14675 0.990545 0.0 
1.13821 0.987686 0.0 
1.17389 1.0045 0.0 
1.15025 0.996923 0.0 
1.18249 0.977579 0.0 
1.18879 0.998242 0.0 
1.13535 0.993384 0.0 
1.15773 0.994998 0.0 
1.16099 0.992464 0.0 
1.18696 1.00682 0.0 
1.1646 0.994189 0.0 
1.18974 0.996863 0.0 
1.13473 0.979873 0.0 
1.17826 0.975507 0.0 
1.13539 0.997314 0.0 
1.14548 0.991755 0.0 
1.17142 0.975495 0.0 
1.19011 0.993718 0.0 
1.1683 0.996876 0.0 
1.16386 0.99579 0.0 
1.1245 0.988821 0.0 
1.13756 0.999264 0.0 
1.13745 0.98657 0.0 
1.15604 0.995253 0.0 
1.17205 0.991386 0.0 
1.16673 0.99842 0.0 
1.16786 0.99341 0.0 
1.12234 0.989573 0.0 
1.12702 0.995336 0.0 
1.14692 0.977582 0.0 
1.11513 1.00367 0.0 
1.14964 0.982076 0.0 
1.13539 0.994028 0.0 
1.12915 0.994399 0.0 
1.17703 1.00629 0.0 
1.19485 0.984073 0.0 
1.16513 0.994913 0.0 
1.12465 0.987803 0.0 
1.1574 0.980084 0.0 
1.17241 0.980597 0.0 
1.13179 1.00074 0.0 
1.16816 0.997655 0.0 
1.15659 1.00065 0.0 
1.16342 0.978126 0.0 
1.19644 0.994906 0.0 
1.1846 0.985492 0.0 
1.13451 1.00845 0.0 
1.15604 1.00915 0.0 
1.1771 0.999523 0.0 
1.16993 0.988949 0.0 
1.13225 1.00454 0.0 
1.16202 0.990469 0.0 
1.11969 0.999664 0.0 
1.17686 0.985598 0.0 
1.13606 0.998699 0.0 
1.14494 0.977507 0.0 
1.17349 1.00648 0.0 
1.12763 0.997626 0.0 
1.15843 0.991282 0.0 
1.1884 1.00087 0.0 
1.18111 0.9847 0.0 
1.18008 0.990876 0.0 
1.16108 0.980717 0.0 
1.14226 1.00009 0.0 
1.17693 0.9844 0.0 
1.19057 0.987565 0.0 
1.13209 0.996964 0.0 
1.21278 0.978533 0.0 
1.14926 0.995515 0.0 
1.20624 0.980102 0.0 
1.19883 0.999119 0.0 
1.15614 0.999888 0.0 
1.17769 1.00496 0.0 
1.16532 1.008 0.0 
1.18019 0.974957 0.0 
1.14379 0.986009 0.0 
1.14803 0.994107 0.0 
1.13164 0.995817 0.0 
1.19157 0.998319 0.0 
1.14392 1.00043 0.0 
1.13997 0.99438 0.0 
1.14388 0.991447 0.0 
1.17198 1.00296 0.0 
1.19009 1.00005 0.0 
1.16624 0.999137 0.0 
1.13411 0.996705 0.0 
1.14514 0.999637 0.0 
1.18733 0.976458 0.0 
1.1798 0.974344 0.0 
1.1634 0.986398 0.0 
1.16314 0.994807 0.0 
1.16119 0.993267 0.0 
1.13801 1.00169 0.0 
1.1337 0.995451 0.0 
1.14201 0.989901 0.0 
1.1635 0.997586 0.0 
1.14283 0.977141 0.0 
1.15744 0.992113 0.0 
1.17325 0.98158 0.0 
1.16287 0.980507 0.0 
1.16625 0.974932 0.0 
1.12934 0.997829 0.0 
1.15418 0.99396 0.0 
1.12818 0.983781 0.0 
1.18782 0.982879 0.0 
1.17544 0.995804 0.0 
1.15267 0.986215 0.0 
1.13293 0.996125 0.0 
1.17386 1.00354 0.0 
1.16104 0.994616 0.0 
1.12474 0.996947 0.0 
1.13984 1.00013 0.0 
1.14155 0.974878 0.0 
1.14995 0.997712 0.0 
1.14972 0.979418 0.0 
1.15637 0.991365 0.0 
1.13737 0.991214 0.0 
1.15404 1.00699 0.0 
1.15011 1.00055 0.0 
1.13114 0.996485 0.0 
1.15174 0.994467 0.0 
1.20603 0.977925 0.0 
1.1441 1.00111 0.0 
1.12099 1.00323 0.0 
1.15849 0.999838 0.0 
1.14624 0.998684 0.0 
1.13605 1.00078 0.0 
1.14794 0.997278 0.0 
1.15287 0.99612 0.0 
1.19412 0.993542 0.0 
1.19858 0.973977 0.0 
1.16891 0.988108 0.0 
1.12993 0.994936 0.0 
1.14325 1.00751 0.0 
1.13854 0.991495 0.0 
1.12916 1.0063 0.0 
1.13801 0.975778 0.0 
1.15601 0.994384 0.0 
1.13419 0.994564 0.0 
1.18282 0.986018 0.0 
1.15441 0.997518 0.0 
1.15199 0.978779 0.0 
1.20074 0.974462 0.0 
1.16889 0.998793 0.0 
1.20964 0.978729 0.0 
1.14342 0.989582 0.0 
1.14566 0.993045 0.0 
1.18383 0.976465 0.0 
1.15208 1.00028 0.0 
1.13624 0.996464 0.0 
1.13417 0.991767 0.0 
1.12526 0.995521 0.0 
1.17006 0.974778 0.0 
1.16023 0.997035 0.0 
1.12065 1.00551 0.0 
1.13379 0.993757 0.0 
1.12664 0.987761 0.0 
1.13409 1.00146 0.0 
1.19809 0.973182 0.0 
1.14237 0.992525 0.0 
1.17509 0.977648 0.0 
1.1296 0.989767 0.0 
1.17241 1.00151 0.0 
1.13607 1.00006 0.0 
1.1586 0.994363 0.0 
1.17539 0.993166 0.0 
1.13033 0.983402 0.0 
1.14531 0.995265 0.0 
1.14997 1.0032 0.0 
1.12831 1.00017 0.0 
1.17705 1.00113 0.0 
1.16595 1.00508 0.0 
1.12515 0.995029 0.0 
1.1934 0.994838 0.0 
1.19182 0.994354 0.0 
1.13865 1.00385 0.0 
1.15771 0.980622 0.0 
1.15404 1.00169 0.0 
1.19743 0.974695 0.0 
1.16264 0.981056 0.0 
1.13211 1.00527 0.0 
1.13056 1.00006 0.0 
1.19839 0.987595 0.0 
1.15403 1.00885 0.0 
1.1296 1.00124 0.0 
1.13621 0.989272 0.0 
1.22242 0.989667 0.0 
1.17458 0.991595 0.0 
1.18702 1.00008 0.0 
1.19919 0.996707 0.0 
1.19799 0.994223 0.0 
1.16145 0.986559 0.0 
1.15083 1.00222 0.0 
1.18563 0.984889 0.0 
1.16619 0.990126 0.0 
1.11608 1.00142 0.0 
1.14801 1.00561 0.0 
1.14445 0.988956 0.0 
1.14367 0.974635 0.0 
1.13763 0.993828 0.0 
1.155 0.998266 0.0 
1.14151 0.980209 0.0 
1.14438 0.987469 0.0 
1.14597 0.992355 0.0 
1.15391 0.991439 0.0 
1.14588 1.0063 0.0 
1.1563 1.00446 0.0 
1.12569 0.996423 0.0 
1.12971 0.991963 0.0 
1.13758 0.995756 0.0 
1.21023 0.979929 0.0 
1.17726 1.00192 0.0 
1.14988 0.991994 0.0 
1.14843 0.99071 0.0 
1.14361 0.99909 0.0 
1.12629 0.990706 0.0 
1.17704 0.988753 0.0 
1.12801 0.993803 0.0 
1.20195 0.985391 0.0 
1.17483 1.00553 0.0 
1.17072 0.985778 0.0 
1.16931 0.985024 0.0 
1.13119 0.980355 0.0 
1.16559 0.989277 0.0 
1.21172 0.97925 0.0 
1.14375 0.996547 0.0 
1.1609 0.995824 0.0 
1.16597 0.993588 0.0 
1.14874 0.979809 0.0 
1.16814 0.97437 0.0 
1.14092 0.978186 0.0 
1.12851 0.995877 0.0 
1.159 0.99346 0.0 
1.13232 0.993539 0.0 
1.18504 0.989682 0.0 
1.21264 0.981229 0.0 
1.13431 1.00212 0.0 
1.13406 1.00336 0.0 
1.17509 1.00173 0.0 
1.14842 1.00119 0.0 
1.14802 0.992214 0.0 
1.17718 0.99169 0.0 
1.17796 0.987228 0.0 
1.15956 0.973566 0.0 
1.13998 1.00094 0.0 
1.16401 0.999033 0.0 
1.16666 0.995426 0.0 
1.13493 0.995914 0.0 
1.15127 1.00814 0.0 
1.15718 0.99928 0.0 
1.18643 0.977787 0.0 
1.13205 0.994154 0.0 
1.13056 1.00229 0.0 
1.19346 0.996948 0.0 
1.13501 0.994744 0.0 
1.1822 0.973906 0.0 
1.15124 0.993569 0.0 
1.14905 0.980341 0.0 
1.14636 1.00023 0.0 
1.14102 0.997968 0.0 
1.15058 0.98159 0.0 
1.14551 0.975179 0.0 
1.15821 0.998022 0.0 
1.15408 1.00058 0.0 
1.18581 0.974737 0.0 
1.13458 0.998105 0.0 
1.20123 0.977336 0.0 
1.1952 0.994194 0.0 
1.17532 0.99386 0.0 
1.15028 0.999841 0.0 
1.2066 0.978547 0.0 
1.13397 0.992483 0.0 
1.15114 0.990176 0.0 
1.13875 1.00869 0.0 
1.1726 0.98616 0.0 
1.16389 0.996757 0.0 
1.1325 0.998273 0.0 
1.14588 1.00277 0.0 
1.20731 0.97717 0.0 
1.15135 0.992714 0.0 
1.1643 1.00723 0.0 
1.1621 0.991842 0.0 
1.16478 0.982489 0.0 
1.1679 1.00415 0.0 
1.15522 0.975763 0.0 
1.14296 0.995732 0.0 
1.12665 0.994796 0.0 
1.1702 1.00228 0.0 
1.16366 1.00598 0.0 
1.1381 0.984658 0.0 
1.15383 0.990592 0.0 
1.17455 1.00086 0.0 
1.13707 0.982533 0.0 
1.12226 0.990884 0.0 
1.20336 0.976494 0.0 
1.11952 1.0018 0.0 
1.15321 0.998687 0.0 
1.13319 1.00717 0.0 
1.1555 0.990683 0.0 
1.17167 0.984442 0.0 
1.17307 0.993173 0.0 
1.14376 0.990791 0.0 
1.20016 0.975248 0.0 
1.14321 0.978883 0.0 
1.12907 0.987738 0.0 
1.14724 0.995608 0.0 
1.13018 1.00825 0.0 
1.14405 0.992101 0.0 
1.17022 0.996401 0.0 
1.17619 0.990655 0.0 
1.15382 0.996743 0.0 
1.16485 0.9928 0.0 
1.15962 0.991866 0.0 
1.21601 0.979085 0.0 
1.14108 0.995059 0.0 
1.14778 1.0081 0.0 
1.12149 0.986536 0.0 
1.15542 0.981273 0.0 
1.14329 1.0082 0.0 
1.19601 0.996406 0.0 
1.15259 0.997377 0.0 
1.13673 0.980465 0.0 
1.16066 0.991142 0.0 
1.16245 0.97417 0.0 
1.16021 1.00843 0.0 
1.14649 0.989929 0.0 
1.12483 0.986475 0.0 
1.13033 0.989112 0.0 
1.18762 0.989266 0.0 
1.14205 1.00198 0.0 
1.1478 0.997996 0.0 
1.15688 0.997623 0.0 
1.16882 1.00084 0.0 
1.14015 0.997254 0.0 
1.16432 0.979018 0.0 
1.13844 0.989346 0.0 
1.12934 0.996392 0.0 
1.12972 1.00559 0.0 
1.15232 0.990839 0.0 
1.14819 1.00035 0.0 
1.16258 0.991116 0.0 
1.13553 0.991601 0.0 
1.12895 0.98455 0.0 
1.15307 1.00795 0.0 
1.13663 0.994493 0.0 
1.20042 0.975908 0.0 
1.15288 0.994999 0.0 
1.15082 0.999025 0.0 
1.1368 0.991592 0.0 
1.12282 1.00144 0.0 
1.14802 0.999468 0.0 
1.19694 0.983542 0.0 
1.1511 0.988731 0.0 
1.15813 0.99679 0.0 
1.16757 0.988801 0.0 
1.15068 1.00386 0.0 
1.13794 1.00528 0.0 
1.1312 0.997695 0.0 
1.14402 0.993603 0.0 
1.16171 0.998782 0.0 
1.13535 0.995184 0.0 
1.15201 0.976437 0.0 
1.13634 1.00159 0.0 
1.13187 0.998964 0.0 
1.18982 0.982283 0.0 
1.19115 0.999384 0.0 
1.12667 0.995844 0.0 
1.14617 0.977911 0.0 
1.17726 0.974897 0.0 
1.14556 0.996063 0.0 
1.13375 0.998915 0.0 
1.15343 0.980211 0.0 
1.16739 0.999612 0.0 
1.14829 0.979346 0.0 
1.13846 0.998165 0.0 
1.14844 1.00204 0.0 
1.13556 0.98691 0.0 
1.12099 0.989192 0.0 
1.15072 0.996155 0.0 
1.18406 0.99482 0.0 
1.14533 0.988403 0.0 
1.14711 0.979546 0.0 
1.20825 0.981765 0.0 
1.12678 0.999681 0.0 
1.18396 0.975976 0.0 
1.20964 0.977972 0.0 
1.18317 0.984732 0.0 
1.16248 0.975956 0.0 
1.15622 0.9961 0.0 
1.16963 0.978932 0.0 
1.19473 0.97318 0.0 
1.14605 0.980572 0.0 
1.1278 1.00163 0.0 
1.15697 0.993564 0.0 
1.15758 0.981174 0.0 
1.11954 1.00112 0.0 
1.18032 1.00372 0.0 
1.14349 0.990169 0.0 
1.14415 0.992781 0.0 
1.16784 1.00751 0.0 
1.13978 0.975164 0.0 
1.15068 1.00536 0.0 
1.16416 0.999828 0.0 
1.15955 0.983919 0.0 
1.11725 1.00471 0.0 
1.14011 0.980723 0.0 
1.11656 1.00313 0.0 
1.14968 0.99472 0.0 
1.12893 1.00278 0.0 
1.18594 0.990521 0.0 
1.20269 0.986247 0.0 
1.1695 0.991196 0.0 
1.15451 0.974219 0.0 
1.14967 0.98809 0.0 
1.1236 0.996465 0.0 
1.17258 0.974722 0.0 
1.17485 0.994884 0.0 
1.11525 1.00294 0.0 
1.12267 0.990191 0.0 
1.15491 0.980021 0.0 
1.13691 0.993326 0.0 
1.13831 1.00324 0.0 
1.1385 0.994941 0.0 
1.12768 0.981615 0.0 
1.14733 0.992835 0.0 
1.175 0.992428 0.0 
1.16529 0.980388 0.0 
1.15615 0.996911 0.0 
1.17745 0.996466 0.0 
1.15979 0.998396 0.0 
1.18546 0.986966 0.0 
1.13573 0.99229 0.0 
1.14063 0.990322 0.0 
1.12475 1.00714 0.0 
1.13386 1.0006 0.0 
1.14434 0.98819 0.0 
[...]
<PointData>
  <DataArray type = "Float64" Name="Vitesse" NumberOfComponents="3" format="ascii">
0.210071 -0.0187446 0.0 
0.264014 -0.0516515 0.0 
0.071691 -0.0584769 0.0 
0.565458 -0.0728256 0.0 
0.292382 -0.0473786 0.0 
0.153061 -0.0707559 0.0 
0.0917173 -0.0821109 0.0 
0.0944726 -0.0295772 0.0 
0.0388853 -0.0265422 0.0 
0.054977 -0.0524703 0.0 
0.113171 -0.000457673 0.0 
0.0818779 0.0103845 0.0 
0.150793 0.0733614 0.0 
0.492361 -0.0261254 0.0 
-0.037225 0.0968776 0.0 
0.29233 -0.0135863 0.0 
-0.00730951 0.0944386 0.0 
-0.0604286 0.153533 0.0 
0.485288 -0.0853705 0.0 
0.134437 0.040718 0.0 
0.170767 -0.0285186 0.0 
0.288731 -0.0960628 0.0 
-0.0267078 0.142784 0.0 
0.12618 0.00954603 0.0 
0.0836996 0.00209598 0.0 
0.596221 -0.10018 0.0 
0.133506 -0.0219013 0.0 
0.247837 -0.0967086 0.0 
0.147061 0.131277 0.0 
0.22923 -0.0105272 0.0 
0.0408548 0.11489 0.0 
0.00456453 0.0966565 0.0 
0.210848 0.00702876 0.0 
0.170323 -0.0957517 0.0 
0.214211 -0.0461821 0.0 
0.170205 -0.0240269 0.0 
-0.0769703 0.181042 0.0 
0.100311 0.0896951 0.0 
-0.0582719 0.15812 0.0 
0.12458 0.0175148 0.0 
0.0962509 -0.046176 0.0 
0.253537 -0.0453773 0.0 
0.125838 -0.0340842 0.0 
-0.0863021 0.178142 0.0 
-0.0565296 0.155181 0.0 
0.164333 0.0911959 0.0 
-0.0119124 0.0674973 0.0 
-0.0100939 0.0977376 0.0 
-0.0170766 0.138628 0.0 
-0.053221 0.157644 0.0 
0.560959 -0.0941099 0.0 
0.121691 -0.0774182 0.0 
0.152536 -0.0266937 0.0 
-0.0617802 0.180047 0.0 
0.0301489 0.0576189 0.0 
0.0588442 -0.0125652 0.0 
0.083244 0.0978984 0.0 
0.235925 -0.048136 0.0 
0.274492 -0.0131977 0.0 
0.0908549 0.0315862 0.0 
0.198278 -0.101451 0.0 
0.0756494 -0.0690988 0.0 
0.38342 0.0106018 0.0 
0.594407 -0.0639967 0.0 
0.317343 -0.0793061 0.0 
0.0533139 -0.030737 0.0 
0.195358 0.0582523 0.0 
0.0511741 0.00339701 0.0 
-0.0546427 0.118029 0.0 
0.0489211 -0.0477753 0.0 
0.07516 0.100906 0.0 
0.184826 0.0949056 0.0 
0.559508 -0.0903452 0.0 
-0.0177625 0.13584 0.0 
0.0523683 0.0204459 0.0 
0.376361 -0.0965401 0.0 
0.0635755 -0.0576768 0.0 
0.105527 -0.0719104 0.0 
0.0226273 0.0382235 0.0 
0.159202 0.0611819 0.0 
0.0485291 -0.0437894 0.0 
0.0976574 -0.0858628 0.0 
0.00782086 0.130089 0.0 
0.315949 -0.0422953 0.0 
0.0961044 0.0543884 0.0 
0.239367 -0.0568519 0.0 
0.314399 -0.100376 0.0 
0.24856 -0.00673811 0.0 
0.512001 -0.0919789 0.0 
0.591704 -0.0813387 0.0 
0.26238 -0.0123639 0.0 
-0.0490631 0.12727 0.0 
0.0597717 0.0692167 0.0 
-0.0153089 0.140533 0.0 
0.291531 -0.0983547 0.0 
0.181528 0.0503409 0.0 
0.0180305 0.113776 0.0 
-0.00785321 0.107781 0.0 
0.422508 -0.0768138 0.0 
0.348533 -0.0974744 0.0 
0.273626 -0.0462249 0.0 
0.0191304 0.124895 0.0 
0.169458 0.0503235 0.0 
0.23293 -0.0306017 0.0 
0.292386 -0.00948659 0.0 
0.00903681 0.00923984 0.0 
0.143138 -0.0170741 0.0 
0.100982 -0.0018265 0.0 
0.165837 0.0666488 0.0 
-0.0059193 0.135903 0.0 
-0.0353161 0.125763 0.0 
0.21718 -0.0292783 0.0 
0.226175 0.0952921 0.0 
0.0637222 0.0229569 0.0 
0.0497662 -0.019542 0.0 
0.0301001 0.0297419 0.0 
0.237652 0.0222983 0.0 
0.000537015 0.130659 0.0 
0.0871612 0.0338504 0.0 
0.0295436 0.165368 0.0 
0.100674 -0.0643372 0.0 
0.202876 -0.0675438 0.0 
-0.026633 0.0731846 0.0 
-0.000372475 0.133767 0.0 
0.449288 -0.0825554 0.0 
0.130679 -0.0060774 0.0 
-0.0525761 0.144868 0.0 
0.140479 0.0722954 0.0 
0.394415 0.0732799 0.0 
0.152205 0.0377059 0.0 
0.061479 0.0926195 0.0 
0.0461402 0.0320716 0.0 
-0.0425712 0.145186 0.0 
0.488116 -0.0440248 0.0 
0.230384 0.0185176 0.0 
-0.00821067 0.136956 0.0 
0.0863503 0.045562 0.0 
0.294454 -0.0444029 0.0 
0.201757 0.0440638 0.0 
0.035818 0.0841302 0.0 
0.259946 -0.0173474 0.0 
0.152714 0.0514363 0.0 
0.123786 0.0828156 0.0 
0.129132 0.0514534 0.0 
0.129619 0.0306857 0.0 
0.169353 -0.0995934 0.0 
0.398531 -0.0234041 0.0 
0.040694 -0.0236986 0.0 
-0.0409737 0.152022 0.0 
0.424126 -0.00869338 0.0 
-0.0334338 0.137836 0.0 
0.227665 0.0461862 0.0 
0.368939 0.0853458 0.0 
0.104662 0.0215987 0.0 
-0.0167483 0.140267 0.0 
0.0699382 -0.0667316 0.0 
0.172729 0.0150413 0.0 
0.0787454 0.0809886 0.0 
0.388757 -0.0260555 0.0 
0.272295 -0.0543224 0.0 
0.292659 -0.0463386 0.0 
-0.0328634 0.118741 0.0 
0.0269715 0.0890729 0.0 
0.214763 -0.0256443 0.0 
0.235589 0.0104912 0.0 
0.0308954 0.117781 0.0 
-0.0526552 0.156951 0.0 
-0.0669839 0.155511 0.0 
0.246984 0.0116569 0.0 
0.188248 -0.0119818 0.0 
0.103879 0.0597766 0.0 
-0.0311195 0.147002 0.0 
-0.0643326 0.181306 0.0 
0.122975 0.0835709 0.0 
0.433926 -0.0192237 0.0 
0.000810727 0.111189 0.0 
0.136175 -0.0102249 0.0 
-0.0786102 0.177902 0.0 
0.372569 -0.0734078 0.0 
0.106321 0.0891082 0.0 
0.115214 0.00751133 0.0 
0.138907 -0.0622601 0.0 
0.0283976 0.163179 0.0 
0.0679721 0.0786503 0.0 
0.313091 4.43553e-05 0.0 
0.0371263 0.111676 0.0 
0.371484 -0.082645 0.0 
0.47851 -0.0701731 0.0 
-0.0730818 0.159016 0.0 
0.196307 -0.0995128 0.0 
0.184912 -0.0980032 0.0 
0.237168 0.0437926 0.0 
0.0195178 0.0554869 0.0 
0.291786 -0.00793494 0.0 
0.359846 -0.0272641 0.0 
0.0208608 0.0295804 0.0 
0.219949 0.0508089 0.0 
0.0560816 0.107668 0.0 
0.120432 -0.0917473 0.0 
0.56882 -0.056314 0.0 
0.074011 0.0986269 0.0 
-0.0619293 0.158457 0.0 
0.182182 -0.0767509 0.0 
0.105912 -0.0561144 0.0 
0.348494 -0.0951985 0.0 
0.242143 -0.101787 0.0 
0.184243 -0.10187 0.0 
0.00362683 0.0194871 0.0 
0.28683 0.00326988 0.0 
0.0802994 -0.0689462 0.0 
0.0588982 -0.0168071 0.0 
-0.0562415 0.0922548 0.0 
0.385985 -0.0106615 0.0 
-0.0348581 0.114993 0.0 
0.390374 0.0689865 0.0 
-0.00583276 0.1293 0.0 
0.195937 0.00792419 0.0 
0.0729018 0.123783 0.0 
-0.0452317 0.120391 0.0 
0.0166302 0.0907733 0.0 
0.0374297 0.0463725 0.0 
0.39608 -0.00798159 0.0 
0.402955 -0.0354768 0.0 
-0.0523053 0.148321 0.0 
-0.0727095 0.170188 0.0 
0.0271695 0.116669 0.0 
0.265504 -0.0524828 0.0 
0.399598 -0.0846586 0.0 
0.0293871 0.0685801 0.0 
0.00236144 0.0833389 0.0 
0.144085 0.0621812 0.0 
-0.0878232 0.179292 0.0 
0.070501 -0.0578322 0.0 
-0.0669576 0.163706 0.0 
0.140806 -0.0841502 0.0 
0.526796 -0.089623 0.0 
0.0290459 -0.0244898 0.0 
0.0220266 -0.0157331 0.0 
0.157072 0.136775 0.0 
0.0447299 -0.0112596 0.0 
0.290625 -0.0473652 0.0 
0.0854769 0.0793043 0.0 
0.159547 -0.0101226 0.0 
0.124073 -0.0262493 0.0 
0.0505026 0.0980617 0.0 
0.26999 0.0168236 0.0 
0.180962 0.108153 0.0 
-0.0382049 0.148482 0.0 
0.0969325 0.00897555 0.0 
-0.043203 0.153926 0.0 
0.0994226 -0.0819305 0.0 
0.249578 -0.0571625 0.0 
0.142568 0.07662 0.0 
0.176116 0.0651678 0.0 
0.387606 -0.0801137 0.0 
0.237372 0.0223089 0.0 
0.0244475 0.0789145 0.0 
0.113421 -0.0650366 0.0 
0.0597847 -0.0565817 0.0 
0.345119 0.0354569 0.0 
0.162609 0.0648303 0.0 
0.261593 -0.0373298 0.0 
0.170356 -0.035083 0.0 
0.0110416 0.127532 0.0 
0.518283 -0.0426262 0.0 
0.236304 -0.00826607 0.0 
0.184872 -0.0365468 0.0 
-0.0370675 0.150976 0.0 
0.110211 0.0858246 0.0 
0.25045 -0.0996881 0.0 
-0.00822605 0.135438 0.0 
0.323999 -0.0117764 0.0 
0.0652721 0.052879 0.0 
0.0319607 0.098307 0.0 
0.194434 0.0397713 0.0 
0.0979624 0.0837158 0.0 
-0.00134738 0.0926286 0.0 
0.332244 0.0725392 0.0 
0.205798 -0.00682342 0.0 
0.257185 -0.00108218 0.0 
0.296845 -0.0201476 0.0 
0.0502595 0.111735 0.0 
0.283614 -0.042858 0.0 
0.182735 -0.100619 0.0 
0.15415 -0.0633561 0.0 
0.211122 0.0224431 0.0 
0.280087 -0.0476494 0.0 
-0.0462202 0.154069 0.0 
0.00612072 0.0686396 0.0 
0.437844 -0.00442719 0.0 
0.0370374 -0.0335717 0.0 
0.195758 -0.0277018 0.0 
0.0360986 0.117944 0.0 
0.266561 0.0221507 0.0 
0.325383 -0.0391772 0.0 
0.0492063 0.0562657 0.0 
0.555965 -0.0756973 0.0 
0.0755015 -0.00162697 0.0 
0.0121644 0.0146097 0.0 
0.451772 -0.0714063 0.0 
0.218611 0.0571369 0.0 
0.0630483 0.0890111 0.0 
-0.0653847 0.159336 0.0 
0.392358 -0.0702152 0.0 
0.502764 -0.0682287 0.0 
-0.038591 0.154302 0.0 
0.0232537 0.0502978 0.0 
0.355923 -0.0766367 0.0 
0.014456 0.149484 0.0 
-0.0981431 0.176265 0.0 
0.324105 -0.0370969 0.0 
-0.0144383 0.0970711 0.0 
0.197296 0.0145564 0.0 
0.308748 0.027738 0.0 
0.0311954 0.0399009 0.0 
0.0294069 -0.0240539 0.0 
0.133982 -0.0542197 0.0 
-0.0173764 0.11156 0.0 
0.352125 -0.0306637 0.0 
0.122347 0.110102 0.0 
-0.0668993 0.180365 0.0 
0.0866343 0.0654591 0.0 
0.327555 0.0231011 0.0 
0.00284235 0.103537 0.0 
0.206778 -0.0519515 0.0 
0.0936797 -0.0595302 0.0 
0.149809 0.0222588 0.0 
0.103535 -0.018517 0.0 
0.0672434 0.0116434 0.0 
0.318819 -0.0417882 0.0 
0.0375403 0.103596 0.0 
0.489839 -0.0301116 0.0 
-0.0224514 0.169938 0.0 
0.00454372 0.067127 0.0 
0.456166 -0.0151177 0.0 
0.235154 -0.101094 0.0 
0.159078 0.0253957 0.0 
0.0983112 0.135255 0.0 
0.0578714 0.00846508 0.0 
0.292428 0.0313258 0.0 
0.585904 -0.0713707 0.0 
-0.0164247 0.098682 0.0 
-0.0342345 0.176648 0.0 
-0.0759613 0.177839 0.0 
0.10073 -0.0856314 0.0 
0.209817 0.0465147 0.0 
0.145836 0.0476174 0.0 
0.188267 0.00174623 0.0 
0.338025 -0.0613101 0.0 
0.0757947 0.0933813 0.0 
0.0658675 0.0262341 0.0 
-0.0540209 0.147681 0.0 
-0.0238644 0.142513 0.0 
0.20616 0.0528023 0.0 
0.0209302 0.0585786 0.0 
0.211282 0.0295329 0.0 
0.0639052 -0.00170728 0.0 
-0.0474563 0.151977 0.0 
-0.000774494 0.170434 0.0 
0.522885 -0.0473782 0.0 
-0.00148774 0.129856 0.0 
0.328244 -0.0344974 0.0 
0.103649 0.0363776 0.0 
0.19199 0.0249518 0.0 
-0.0412112 0.146142 0.0 
0.0107893 0.103723 0.0 
0.185617 0.0366832 0.0 
0.135597 -0.0761433 0.0 
-0.012222 0.0745483 0.0 
0.172285 -0.000582095 0.0 
0.0445443 -0.0194183 0.0 
0.341519 -0.00818324 0.0 
0.2805 0.032426 0.0 
0.0138816 0.126944 0.0 
0.0281567 0.0957523 0.0 
0.244088 -0.0265755 0.0 
0.00138075 0.130985 0.0 
0.19438 0.0700998 0.0 
0.147754 0.0742179 0.0 
0.044611 0.113889 0.0 
0.116095 -0.0644908 0.0 
0.325955 -0.0980733 0.0 
-0.05263 0.151708 0.0 
0.151425 0.095519 0.0 
0.255284 -0.00631243 0.0 
0.086472 0.0722911 0.0 
0.060193 0.108016 0.0 
0.0284323 0.077271 0.0 
0.292864 -0.0521863 0.0 
0.0700374 0.0979275 0.0 
0.0828239 0.0946423 0.0 
0.263747 0.0158264 0.0 
-0.0607762 0.165329 0.0 
-0.080589 0.174953 0.0 
0.118858 0.0424762 0.0 
0.190284 -0.0873403 0.0 
-0.0362194 0.111635 0.0 
0.0673099 0.103124 0.0 
0.216463 -0.0641409 0.0 
0.0125075 0.118764 0.0 
0.233774 -0.0235278 0.0 
0.314233 -0.0419805 0.0 
0.071169 -0.0631402 0.0 
0.184524 0.034988 0.0 
0.145797 0.0125977 0.0 
0.0815152 0.00411288 0.0 
0.417404 -0.0187701 0.0 
0.0343734 0.111423 0.0 
0.0655319 0.0981999 0.0 
0.090895 0.0197568 0.0 
0.00904329 0.0555446 0.0 
-0.0287608 0.103888 0.0 
0.470725 -0.0923581 0.0 
-0.0262365 0.115928 0.0 
0.0144768 0.0994319 0.0 
0.581477 -0.0843653 0.0 
0.392774 0.0777313 0.0 
0.397595 -0.0195396 0.0 
0.286804 -0.0412601 0.0 
-0.0100382 0.0384638 0.0 
0.0409132 0.0627951 0.0 
0.0605186 0.130859 0.0 
-0.0120472 0.0769176 0.0 
0.0811257 0.0562347 0.0 
0.106794 0.0844744 0.0 
0.111279 -0.0853069 0.0 
0.138286 -0.0873095 0.0 
0.086174 -0.0350629 0.0 
0.326595 0.0497992 0.0 
-0.0237912 0.0859253 0.0 
-0.0680338 0.148841 0.0 
0.253002 0.00531885 0.0 
0.177855 -0.0639187 0.0 
-0.0298538 0.0747953 0.0 
-0.0922489 0.178143 0.0 
0.0318796 0.069994 0.0 
-0.0179987 0.135936 0.0 
0.214279 0.0509806 0.0 
0.0185951 0.117803 0.0 
0.126461 0.147283 0.0 
0.0318694 0.0800351 0.0 
0.122796 -0.059372 0.0 
0.0383678 0.0185247 0.0 
0.165952 0.00902086 0.0 
0.224954 -0.0746621 0.0 
0.223953 -0.0161414 0.0 
0.0808398 -0.0757166 0.0 
-0.0385093 0.14738 0.0 
-0.036769 0.131901 0.0 
0.216044 0.0423423 0.0 
0.099453 0.0924558 0.0 
-0.0412377 0.118353 0.0 
0.00299141 0.102453 0.0 
0.519563 -0.0654538 0.0 
0.0205433 0.122895 0.0 
0.0938294 -0.00781395 0.0 
0.0984407 -0.0771002 0.0 
0.106431 0.0661608 0.0 
0.137629 -0.088104 0.0 
0.203134 -0.0610975 0.0 
0.105427 0.0663227 0.0 
-0.0639823 0.165158 0.0 
0.602432 -0.0787496 0.0 
0.182375 0.0552771 0.0 
0.268318 -0.0286626 0.0 
0.0799936 0.0191769 0.0 
0.224134 -0.0975408 0.0 
0.0196815 0.110325 0.0 
0.00732368 0.167422 0.0 
0.343683 -0.0368009 0.0 
-0.0559991 0.102847 0.0 
0.176636 0.0238453 0.0 
0.126059 0.06093 0.0 
-0.00786726 0.0495038 0.0 
0.0622711 0.105225 0.0 
0.0804773 0.0735159 0.0 
0.0855915 0.0495869 0.0 
0.101402 0.0767717 0.0 
0.0924163 -0.0737487 0.0 
0.378711 0.0300229 0.0 
0.153429 -0.0975163 0.0 
0.0270243 0.117061 0.0 
-0.0300687 0.147613 0.0 
-0.0775002 0.0953113 0.0 
0.230781 -0.0995677 0.0 
-0.0103977 0.0457054 0.0 
0.252499 -0.0760499 0.0 
0.0781389 0.108516 0.0 
-0.0873599 0.111521 0.0 
0.0841186 -0.019965 0.0 
-0.009455 0.144135 0.0 
0.119589 0.0733346 0.0 
0.561943 -0.0630891 0.0 
0.23957 -0.0339678 0.0 
0.130101 0.0641577 0.0 
-0.0300212 0.146803 0.0 
0.0784395 -0.068367 0.0 
0.167652 0.0371035 0.0 
0.336615 0.04462 0.0 
-0.0937299 0.0963523 0.0 
0.38091 -0.0601111 0.0 
0.00163916 0.0806408 0.0 
0.114993 0.147809 0.0 
0.342863 0.0166172 0.0 
-0.0325882 0.118968 0.0 
0.245478 0.102641 0.0 
0.536661 -0.0634408 0.0 
-0.0176118 0.0535679 0.0 
-0.00940793 0.0597397 0.0 
0.0377599 -0.0346623 0.0 
-0.0310282 0.104624 0.0 
0.044398 0.078877 0.0 
0.125765 -0.083337 0.0 
-0.0420892 0.110976 0.0 
0.294979 0.0308003 0.0 
0.0146777 0.060572 0.0 
0.321926 -0.0653897 0.0 
0.0136246 0.0368103 0.0 
0.256424 0.00767859 0.0 
0.303286 0.0543842 0.0 
0.461728 -0.087695 0.0 
-0.0330686 0.176312 0.0 
0.095392 0.111989 0.0 
-0.0116776 0.124533 0.0 
0.133178 0.0713513 0.0 
0.275506 -0.0770031 0.0 
0.0350964 0.0710368 0.0 
0.0361723 -0.0295295 0.0 
-0.0505405 0.140559 0.0 
-0.0677211 0.167314 0.0 
-0.0912264 0.173926 0.0 
0.0726068 0.0856346 0.0 
0.00650488 0.0323075 0.0 
-0.0664792 0.166111 0.0 
0.0411696 -0.0394883 0.0 
0.0106299 0.0742568 0.0 
0.0400403 -0.034534 0.0 
0.354052 -0.0574078 0.0 
0.219712 -0.0484876 0.0 
0.247431 -0.0925755 0.0 
0.271356 -0.0520393 0.0 
0.13597 -0.0678499 0.0 
0.330632 -0.0918029 0.0 
0.110321 0.0510473 0.0 
-0.0429949 0.113154 0.0 
0.0525034 -0.0482167 0.0 
0.0458039 0.106196 0.0 
0.3419 -0.0805115 0.0 
-0.0574849 0.155421 0.0 
0.424984 -0.0837612 0.0 
0.0235631 0.0221682 0.0 
0.00151971 0.0436407 0.0 
0.083531 0.0297996 0.0 
0.226023 -0.0941731 0.0 
0.000402833 0.0216692 0.0 
-0.0646732 0.163366 0.0 
0.0689771 0.0421743 0.0 
0.37008 0.00202136 0.0 
0.0894464 0.0919169 0.0 
0.147246 0.0262421 0.0 
0.425249 -0.0890282 0.0 
0.473024 0.029572 0.0 
-0.032722 0.162816 0.0 
0.0635517 -0.0618696 0.0 
0.0561839 0.105741 0.0 
-0.102204 0.173749 0.0 
-0.0070895 0.0783936 0.0 
0.0180481 -0.00767854 0.0 
0.405945 -0.0455452 0.0 
0.36447 -0.0273278 0.0 
0.0676205 -0.0519707 0.0 
0.407457 -0.0531677 0.0 
-0.0771598 0.162861 0.0 
-0.0972333 0.149707 0.0 
0.142752 0.105478 0.0 
0.0906213 -0.0721308 0.0 
0.465147 -0.0626598 0.0 
0.075506 0.0598374 0.0 
0.469946 -0.056391 0.0 
0.0479183 -0.00451153 0.0 
0.387219 -0.0871661 0.0 
0.109389 0.0551678 0.0 
-0.0670551 0.124531 0.0 
0.269373 0.0375403 0.0 
0.103682 -0.0786072 0.0 
0.539741 -0.0548222 0.0 
0.0294287 0.0789384 0.0 
-0.050024 0.14856 0.0 
0.0133663 0.0227172 0.0 
0.219628 -0.0649622 0.0 
0.502319 -0.0528474 0.0 
0.284741 0.0328127 0.0 
-0.0175597 0.170155 0.0 
0.170485 -0.0441918 0.0 
-0.0397542 0.147066 0.0 
0.0113321 0.124701 0.0 
0.249256 0.0427995 0.0 
-0.0587104 0.151125 0.0 
0.180999 -0.0994147 0.0 
-0.0016675 0.0215626 0.0 
-0.101125 0.171157 0.0 
0.185258 -0.0953023 0.0 
-0.0840198 0.1664 0.0 
0.0810186 0.090987 0.0 
0.0231459 0.11318 0.0 
-0.0842679 0.175945 0.0 
0.069434 -0.0245519 0.0 
-0.0794823 0.103988 0.0 
-0.0184581 0.0729931 0.0 
0.14414 0.0738257 0.0 
0.0935085 -0.0695664 0.0 
0.143832 -0.0737156 0.0 
0.285501 -0.02443 0.0 
0.136122 0.0391023 0.0 
-0.00590642 0.0330241 0.0 
0.338057 -0.0991594 0.0 
0.0682612 -0.0609736 0.0 
0.0991674 -0.0227159 0.0 
0.0773668 -0.0723864 0.0 
-0.000393253 0.0805864 0.0 
0.100192 0.153079 0.0 
0.0500769 0.105651 0.0 
0.181573 0.0601657 0.0 
0.315896 -0.00165562 0.0 
0.0473711 -0.0390519 0.0 
-0.0386894 0.140165 0.0 
0.235908 -0.0366019 0.0 
0.387369 -0.00631353 0.0 
-0.0124882 0.126609 0.0 
0.0104588 0.0857786 0.0 
0.364328 -0.0654874 0.0 
0.236037 0.00339325 0.0 
0.21327 -0.00359389 0.0 
0.0173188 0.0674387 0.0 
0.149877 -0.0127715 0.0 
0.467422 -0.0957635 0.0 
-0.0664715 0.111696 0.0 
0.0749194 -0.0711565 0.0 
0.316459 0.0213954 0.0 
0.375601 -0.0234788 0.0 
0.409856 -0.0970068 0.0 
0.254567 -0.101238 0.0 
0.14931 -0.071382 0.0 
-0.0549537 0.141304 0.0 
-0.05127 0.13675 0.0 
0.117324 -0.0736486 0.0 
-0.0270278 0.0818904 0.0 
0.106729 0.100198 0.0 
-0.0678693 0.152782 0.0 
0.0271952 0.0336455 0.0 
0.224793 -0.102091 0.0 
0.0440383 -0.0390986 0.0 
0.0851926 0.0977591 0.0 
0.0500457 0.0913836 0.0 
0.0658231 -0.0360244 0.0 
0.0834569 -0.0633563 0.0 
-0.0614075 0.135488 0.0 
-0.0529287 0.153813 0.0 
0.0332327 -0.0301325 0.0 
0.24488 -0.0822892 0.0 
0.159722 -0.0806653 0.0 
0.181173 -0.0787207 0.0 
0.0301985 0.0123289 0.0 
-0.0556319 0.141602 0.0 
0.362148 -0.00880672 0.0 
-0.0245796 0.134481 0.0 
0.200759 0.0567319 0.0 
0.372383 -0.0367396 0.0 
0.0868436 -0.0577373 0.0 
0.112933 -0.0146439 0.0 
0.0341759 -0.0258604 0.0 
-0.0260424 0.101247 0.0 
0.00419913 0.124086 0.0 
-0.000250925 0.0786748 0.0 
0.102799 -0.040501 0.0 
-0.0694309 0.167203 0.0 
0.146473 -0.02305 0.0 
0.0144409 0.0970502 0.0 
0.175506 -0.0817944 0.0 
-0.0402759 0.137145 0.0 
-0.031868 0.131746 0.0 
0.329429 -0.0422163 0.0 
0.0147652 0.0492517 0.0 
0.0252555 -0.0170244 0.0 
0.0228868 -0.0152301 0.0 
0.152297 -0.0662957 0.0 
-0.105944 0.158537 0.0 
0.138302 -0.00156012 0.0 
-0.0842242 0.127931 0.0 
0.207176 -0.0721783 0.0 
-0.0187829 0.0531003 0.0 
-0.0682821 0.172839 0.0 
0.162111 -0.0924945 0.0 
0.0796954 -0.0416296 0.0 
0.26849 0.0266397 0.0 
0.238119 0.045069 0.0 
0.0892062 -0.0639832 0.0 
-0.108045 0.143051 0.0 
-0.0489794 0.0769238 0.0 
0.254416 0.123155 0.0 
0.521918 0.0165574 0.0 
-0.0154453 0.0918204 0.0 
-0.0966582 0.164677 0.0 
0.083668 -0.0756049 0.0 
-0.0824922 0.146933 0.0 
0.18124 -0.0804023 0.0 
0.198704 0.0484463 0.0 
0.263352 -0.0150043 0.0 
0.0996354 0.0787482 0.0 
0.0766411 -0.0217395 0.0 
0.306614 -0.0485041 0.0 
-0.0447173 0.175977 0.0 
0.189499 -0.0733602 0.0 
0.153015 0.0638571 0.0 
-0.00649349 0.114365 0.0 
0.0892032 -0.0764032 0.0 
0.090601 0.154466 0.0 
0.2156 -0.0616195 0.0 
0.185285 0.0598751 0.0 
0.313001 -0.0994275 0.0 
0.227072 -0.00196086 0.0 
-0.000120592 0.117866 0.0 
-0.0567589 0.160968 0.0 
-0.0450098 0.138162 0.0 
0.330889 -0.018261 0.0 
0.17432 0.0500623 0.0 
0.227805 -0.0251113 0.0 
0.452319 -0.0255077 0.0 
0.0558716 0.0971002 0.0 
0.512911 0.0333038 0.0 
0.0922298 0.0135648 0.0 
0.0286025 0.103943 0.0 
0.127169 0.0530244 0.0 
0.196229 -0.0851765 0.0 
0.335633 -0.0867152 0.0 
0.0581826 0.0673179 0.0 
-0.0945051 0.140985 0.0 
-0.113178 0.128236 0.0 
0.0621498 -0.00892077 0.0 
-0.0593125 0.162596 0.0 
0.179567 -0.0963672 0.0 
0.0653417 -0.0632077 0.0 
0.00995874 0.130935 0.0 
0.208317 -0.0912569 0.0 
-0.0812964 0.156862 0.0 
0.291583 0.0101196 0.0 
0.0385479 0.0472302 0.0 
0.00280361 0.0901789 0.0 
0.237804 -0.0588015 0.0 
-0.11093 0.135178 0.0 
0.209621 -0.0850701 0.0 
0.00435417 0.0250087 0.0 
-0.022453 0.127814 0.0 
0.0328587 0.0583438 0.0 
0.30825 -0.097005 0.0 
-0.0982814 0.132959 0.0 
-0.0839015 0.13583 0.0 
0.0558004 -0.0547495 0.0 
0.0930536 0.0845524 0.0 
0.0676579 -0.0295633 0.0 
0.130925 0.0781406 0.0 
0.0447612 0.0686053 0.0 
0.323833 -0.0726033 0.0 
0.0538696 0.138878 0.0 
0.00176035 0.0918719 0.0 
0.513285 -0.0949651 0.0 
0.145045 -0.0810597 0.0 
0.487217 -0.054619 0.0 
0.192375 -0.102434 0.0 
0.104414 -0.0348291 0.0 
0.0808255 0.0797178 0.0 
0.233731 -0.0587355 0.0 
0.200954 -0.102437 0.0 
0.197745 -0.00904676 0.0 
0.0160157 0.0790454 0.0 
0.188462 -0.102049 0.0 
0.667938 -0.0885117 0.0 
-0.0311594 0.142015 0.0 
0.227262 -0.101873 0.0 
-0.0727988 0.179598 0.0 
-0.0330407 0.0925558 0.0 
0.0598834 0.160228 0.0 
-0.11061 0.121371 0.0 
0.189412 0.0589845 0.0 
0.290332 -0.0724552 0.0 
0.128964 -0.0713594 0.0 
0.0603076 -0.0532274 0.0 
0.0555632 0.0852444 0.0 
0.259581 -0.0690739 0.0 
0.0993151 -0.0591448 0.0 
0.0236676 0.111703 0.0 
-0.0518986 0.147733 0.0 
0.109232 0.0822862 0.0 
0.148891 0.110387 0.0 
0.242582 0.0273546 0.0 
0.314995 -0.0190173 0.0 
0.177041 0.0594117 0.0 
-0.020801 0.120644 0.0 
0.0145101 0.0706555 0.0 
0.241926 -0.0170892 0.0 
-0.0472992 0.121391 0.0 
0.186338 -0.0514879 0.0 
0.0570401 0.0558993 0.0 