<VTKFile type="UnstructuredGrid" version="0.1" byte_order="LittleEndian">
  <UnstructuredGrid>
    <Piece NumberOfPoints="15803" NumberOfCells="31193">
      <Points>
        <DataArray type = "Float64" NumberOfComponents="3" format="ascii">
1.06538 1.00379 0.0 
1.05403 1.00395 0.0 
1.08048 1.00547 0.0 
1.04877 1.00291 0.0 
1.07862 1.00408 0.0 
1.05644 1.00242 0.0 
1.052 1.00061 0.0 
1.06151 1.0086 0.0 
1.07692 0.999466 0.0 
1.06757 1.0028 0.0 
1.05573 1.00199 0.0 
1.07325 1.00192 0.0 
1.05663 1.00316 0.0 
1.05388 1.00338 0.0 
1.06209 1.00806 0.0 
1.05627 1.00412 0.0 
1.06567 1.00523 0.0 
1.07091 1.00401 0.0 
1.08072 1.00289 0.0 
1.04863 1.00138 0.0 
1.0583 1.00282 0.0 
1.06269 1.00323 0.0 
1.07904 1.00721 0.0 
1.08559 1.00315 0.0 
1.07603 1.00487 0.0 
1.04668 1.00303 0.0 
1.07858 1.00555 0.0 
1.11139 1.01011 0.0 
1.04934 1.00075 0.0 
1.04983 1.0012 0.0 
1.05043 1.00043 0.0 
1.04649 1.00318 0.0 
1.05169 0.999286 0.0 
1.07387 1.00948 0.0 
1.0523 1.00911 0.0 
1.0263 1.0102 0.0 
1.04424 1.00882 0.0 
1.10133 1.01025 0.0 
1.04819 1.00446 0.0 
1.08191 1.00382 0.0 
1.04796 1.00279 0.0 
1.07434 1.00096 0.0 
1.07561 1.00189 0.0 
1.07439 1.00182 0.0 
1.07067 1.00274 0.0 
1.05521 1.0039 0.0 
1.06405 1.00397 0.0 
1.07081 1.00337 0.0 
1.04678 1.00376 0.0 
1.05189 0.999842 0.0 
1.04928 1.00461 0.0 
1.07285 1.00546 0.0 
1.05746 1.00361 0.0 
1.06152 1.00368 0.0 
1.049 1.00106 0.0 
1.05903 1.00854 0.0 
1.04743 1.00314 0.0 
1.06457 1.00786 0.0 
1.04727 1.00712 0.0 
1.07499 1.00059 0.0 
1.06152 1.00292 0.0 
1.08185 1.0032 0.0 
1.04609 1.00348 0.0 
1.05393 1.00702 0.0 
1.06972 1.00383 0.0 
1.05068 1.00176 0.0 
1.05053 1.0076 0.0 
1.04506 1.00419 0.0 
1.04568 1.00464 0.0 
1.06046 1.00412 0.0 
1.05041 1.00462 0.0 
1.07861 1.00275 0.0 
1.04589 1.00363 0.0 
1.07329 1.00377 0.0 
1.04632 1.00749 0.0 
1.04656 1.00823 0.0 
1.07751 1.00241 0.0 
1.07534 1.00126 0.0 
1.06119 1.01703 0.0 
1.07532 1.00243 0.0 
1.08251 1.00214 0.0 
1.05173 1.00677 0.0 
1.04568 1.00377 0.0 
1.06571 1.00477 0.0 
1.05048 1.00821 0.0 
1.06469 1.00333 0.0 
1.04688 1.00287 0.0 
1.05159 1.00326 0.0 
1.07103 1.00657 0.0 
1.04701 1.00578 0.0 
1.04822 1.00175 0.0 
1.06841 1.0048 0.0 
1.05434 1.00263 0.0 
1.05136 0.99889 0.0 
1.04791 1.00587 0.0 
1.04469 1.00577 0.0 
1.04463 1.00445 0.0 
1.053 1.00469 0.0 
1.07222 1.00219 0.0 
1.05299 1.006 0.0 
1.05504 1.00472 0.0 
1.05824 1.00634 0.0 
1.07833 1.0036 0.0 
1.05875 1.00353 0.0 
1.07536 1.00301 0.0 
1.07565 1.00025 0.0 
1.07117 1.00592 0.0 
1.07762 1.00129 0.0 
1.05535 1.00769 0.0 
1.0796 1.0037 0.0 
1.07754 1.00679 0.0 
1.06362 1.0035 0.0 
1.06269 1.007 0.0 
1.07436 1.00348 0.0 
1.05046 1.00537 0.0 
1.06645 1.00399 0.0 
1.06967 1.00507 0.0 
1.05895 1.0043 0.0 
1.04651 1.00496 0.0 
1.04833 1.00727 0.0 
1.09639 0.996513 0.0 
1.04442 1.00458 0.0 
1.04548 1.00392 0.0 
1.0785 1.00084 0.0 
1.04172 1.00589 0.0 
1.05308 1.00654 0.0 
1.04196 1.0058 0.0 
1.07802 1.00186 0.0 
1.05394 1.00615 0.0 
1.04433 1.0069 0.0 
1.05269 1.00706 0.0 
1.04999 1.00908 0.0 
1.04836 1.00514 0.0 
1.07141 1.00239 0.0 
1.06674 1.00616 0.0 
1.06008 1.00469 0.0 
1.06086 1.00498 0.0 
1.06203 1.00497 0.0 
1.04987 1.00295 0.0 
1.05486 1.00169 0.0 
1.05793 1.00503 0.0 
1.04538 1.0075 0.0 
1.04648 1.00425 0.0 
1.06315 1.00644 0.0 
1.05106 0.999982 0.0 
1.05608 1.00486 0.0 
1.07215 1.00419 0.0 
1.04727 1.00256 0.0 
1.06669 1.00555 0.0 
1.04924 1.00782 0.0 
1.04527 1.00405 0.0 
1.0472 1.00438 0.0 
1.07644 1.0029 0.0 
1.07454 1.00397 0.0 
1.04891 1.00674 0.0 
1.04398 1.00483 0.0 
1.05165 1.0074 0.0 
1.05981 1.00529 0.0 
1.05307 1.00758 0.0 
1.04377 1.00495 0.0 
1.04977 1.00652 0.0 
1.07447 1.00242 0.0 
1.04973 1.0004 0.0 
1.04985 1.00504 0.0 
1.0629 1.0045 0.0 
1.07664 1.0017 0.0 
1.04799 1.00787 0.0 
1.05578 1.00694 0.0 
1.05226 1.00543 0.0 
1.0695 1.00317 0.0 
1.0439 1.00737 0.0 
1.04357 1.0066 0.0 
1.05266 1.00204 0.0 
1.07232 1.00484 0.0 
1.04969 1.01121 0.0 
1.07206 1.00357 0.0 
1.07196 1.00293 0.0 
1.06151 1.00441 0.0 
1.04332 1.00518 0.0 
1.07111 1.00528 0.0 
1.05139 1.0056 0.0 
1.0623 1.00546 0.0 
1.07568 1.00353 0.0 
1.06793 1.00665 0.0 
1.05522 1.00629 0.0 
1.04629 1.00334 0.0 
1.05979 1.00661 0.0 
1.05584 1.00595 0.0 
1.05115 1.00258 0.0 
1.07761 1.0051 0.0 
1.04647 1.00699 0.0 
1.0559 1.00547 0.0 
1.04357 1.00569 0.0 
1.04761 1.00843 0.0 
1.07666 1.00025 0.0 
1.04862 1.00564 0.0 
1.06272 1.00388 0.0 
1.06966 1.0057 0.0 
1.05066 0.999545 0.0 
1.04765 1.00223 0.0 
1.06551 1.00576 0.0 
1.05745 1.00438 0.0 
1.04533 1.00561 0.0 
1.0495 1.0072 0.0 
1.07467 1.00454 0.0 
1.04354 1.00507 0.0 
1.04576 1.00688 0.0 
1.04485 1.00432 0.0 
1.06309 1.00574 0.0 
1.0794 1.00202 0.0 
1.05762 1.00751 0.0 
1.05007 1.0038 0.0 
1.04899 1.00187 0.0 
1.04534 1.00491 0.0 
1.04635 1.00578 0.0 
1.0442 1.00471 0.0 
1.04287 1.0054 0.0 
1.06638 1.00679 0.0 
1.07442 1.00585 0.0 
1.06964 1.00246 0.0 
1.05219 1.00143 0.0 
1.05214 1.00842 0.0 
1.07699 1.00455 0.0 
1.05366 1.00798 0.0 
1.04499 1.007 0.0 
1.06009 1.00759 0.0 
1.05901 1.005 0.0 
1.06583 1.00734 0.0 
1.0431 1.00529 0.0 
1.0717 1.00109 0.0 
1.07275 1.00622 0.0 
1.04417 1.00812 0.0 
1.05161 1.00483 0.0 
1.0449 1.0082 0.0 
1.05086 1.00079 0.0 
1.05975 1.00592 0.0 
1.04576 1.00625 0.0 
1.04712 1.00784 0.0 
1.06224 1.00753 0.0 
1.05187 1.00616 0.0 
1.05075 1.00871 0.0 
1.0639 1.00736 0.0 
1.06741 1.00782 0.0 
1.06395 1.00444 0.0 
1.0682 1.00727 0.0 
1.04593 1.00547 0.0 
1.04901 1.00851 0.0 
1.05831 1.00567 0.0 
1.07325 1.00311 0.0 
1.04729 1.00641 0.0 
1.04744 1.00518 0.0 
1.04598 1.00424 0.0 
1.0432 1.00725 0.0 
1.0544 1.0066 0.0 
1.04417 1.00544 0.0 
1.05689 1.00515 0.0 
1.05403 1.00544 0.0 
1.07262 1.0069 0.0 
1.04887 1.00613 0.0 
1.05343 1.00238 0.0 
1.06823 1.0033 0.0 
1.05192 1.00786 0.0 
1.07603 1.00073 0.0 
1.06771 1.00388 0.0 
1.045 1.00638 0.0 
1.04475 1.00511 0.0 
1.05459 1.00588 0.0 
1.09194 1.01345 0.0 
1.05786 1.00695 0.0 
1.07929 1.00498 0.0 
1.08095 1.00493 0.0 
1.04461 1.00751 0.0 
1.05696 1.00568 0.0 
1.0764 1.00558 0.0 
1.07978 1.00266 0.0 
1.08207 1.00455 0.0 
1.05505 1.00529 0.0 
1.02867 1.01009 0.0 
1.04837 1.00233 0.0 
1.05082 1.00618 0.0 
1.05408 1.00466 0.0 
1.04418 1.00629 0.0 
1.0763 1.00227 0.0 
1.04219 1.0057 0.0 
1.04782 1.00368 0.0 
1.04231 1.00634 0.0 
1.06022 1.00352 0.0 
1.06508 1.00634 0.0 
1.05317 1.00526 0.0 
1.04933 1.00541 0.0 
1.04571 1.00791 0.0 
1.05674 1.00623 0.0 
1.04656 1.00646 0.0 
1.0481 1.00659 0.0 
1.07383 1.00055 0.0 
1.06714 1.00344 0.0 
1.09414 0.99587 0.0 
1.07035 1.00146 0.0 
1.04686 1.009 0.0 
1.07063 1.00201 0.0 
1.06732 1.00446 0.0 
1.07284 1.00254 0.0 
1.06444 1.00536 0.0 
1.07434 1.012 0.0 
1.06943 1.00685 0.0 
1.07585 1.00425 0.0 
1.04242 1.0056 0.0 
1.05067 1.00694 0.0 
1.05436 1.00744 0.0 
1.06808 1.0055 0.0 
1.04491 1.00904 0.0 
1.09293 1.01437 0.0 
1.0697 1.01334 0.0 
1.06143 1.00606 0.0 
1.06425 1.00593 0.0 
1.04985 1.00592 0.0 
1.05026 0.999912 0.0 
1.05504 1.00824 0.0 
1.07431 1.00659 0.0 
1.05637 1.00758 0.0 
1.0491 1.00374 0.0 
1.04582 1.00868 0.0 
1.08424 1.0032 0.0 
1.0609 1.0071 0.0 
1.07158 1.00179 0.0 
1.04288 1.00667 0.0 
1.05917 1.00716 0.0 
1.04292 1.00604 0.0 
1.07231 1.00158 0.0 
1.07714 1.00346 0.0 
1.07386 1.00152 0.0 
1.07122 1.00146 0.0 
1.06451 1.00688 0.0 
1.09189 1.0014 0.0 
1.07344 1.00125 0.0 
1.06507 1.00433 0.0 
1.05675 1.00817 0.0 
1.06876 1.00369 0.0 
1.07606 1.00633 0.0 
1.07336 1.00433 0.0 
1.06863 1.00428 0.0 
1.05376 1.00864 0.0 
1.06421 1.01332 0.0 
1.06369 1.00495 0.0 
1.06091 1.00553 0.0 
1.11186 1.0087 0.0 
1.08925 0.999718 0.0 
1.07351 1.00492 0.0 
1.06702 1.00506 0.0 
1.0552 1.00306 0.0 
1.05888 1.00809 0.0 
1.08067 1.01398 0.0 
1.07064 1.00722 0.0 
1.07449 1.00302 0.0 
1.07007 1.00776 0.0 
1.07594 0.999803 0.0 
1.06158 1.00665 0.0 
1.04531 1.00847 0.0 
1.10299 1.00684 0.0 
1.0772 1.00402 0.0 
1.07701 1.00872 0.0 
1.05151 1.00397 0.0 
1.05699 1.00665 0.0 
1.06835 1.00612 0.0 
1.09552 0.998194 0.0 
1.04824 1.00906 0.0 
1.08182 1.00264 0.0 
1.07664 1.00103 0.0 
1.04264 1.0055 0.0 
1.09098 0.996351 0.0 
1.09021 0.997164 0.0 
1.07523 1.00989 0.0 
1.07777 1.01015 0.0 
1.09168 1.01619 0.0 
1.096 0.999185 0.0 
1.09095 1.00008 0.0 
1.10785 1.00406 0.0 
1.10283 1.00892 0.0 
1.07797 0.999237 0.0 
1.09632 0.997237 0.0 
1.0915 1.00095 0.0 
1.09693 1.00176 0.0 
1.08687 0.993136 0.0 
1.09083 1.0024 0.0 
1.08928 1.00262 0.0 
1.06172 1.01762 0.0 
1.06518 1.01745 0.0 
1.10518 1.00542 0.0 
1.10193 1.01403 0.0 
1.08559 1.0067 0.0 
1.07939 1.00973 0.0 
1.07992 1.00022 0.0 
1.10652 1.00778 0.0 
1.09507 0.997626 0.0 
1.07938 0.999743 0.0 
1.07766 1.00058 0.0 
1.09817 1.00538 0.0 
1.0889 1.00403 0.0 
1.07125 1.00954 0.0 
1.09423 0.998173 0.0 
1.0885 1.00018 0.0 
1.09536 1.00025 0.0 
1.11153 1.00348 0.0 
1.10065 0.998381 0.0 
1.08343 1.01162 0.0 
1.09712 0.995794 0.0 
1.08543 0.994165 0.0 
1.08909 0.995493 0.0 
1.08993 0.995024 0.0 
1.08639 1.00244 0.0 
1.08335 1.00148 0.0 
1.09322 0.999807 0.0 
1.0952 1.00478 0.0 
1.0942 0.997264 0.0 
1.08633 0.999084 0.0 
1.11009 1.00519 0.0 
1.10973 1.00327 0.0 
1.09592 1.0104 0.0 
1.09106 1.00177 0.0 
1.0884 1.00148 0.0 
1.09973 1.00503 0.0 
1.09326 1.00034 0.0 
1.08547 1.00122 0.0 
1.08238 0.999767 0.0 
1.07875 0.999472 0.0 
1.08038 1.01016 0.0 
1.07497 1.01105 0.0 
1.08806 1.00214 0.0 
1.09758 0.99751 0.0 
1.05169 1.01176 0.0 
1.08733 1.00031 0.0 
1.09308 1.01085 0.0 
1.09431 0.999914 0.0 
1.08749 1.00138 0.0 
1.08584 1.00177 0.0 
1.09839 1.00018 0.0 
1.09734 1.00578 0.0 
1.08793 1.00085 0.0 
1.08951 1.00185 0.0 
1.10351 1.00123 0.0 
1.08574 1.01336 0.0 
1.08699 0.999453 0.0 
1.06087 1.01187 0.0 
1.09926 0.99753 0.0 
1.04911 1.01323 0.0 
1.08536 0.996536 0.0 
1.08887 1.00055 0.0 
1.09365 1.00311 0.0 
1.09003 0.997862 0.0 
1.08778 1.00256 0.0 
1.08589 1.00055 0.0 
1.09235 0.998952 0.0 
1.08933 1.00093 0.0 
1.07779 0.99987 0.0 
1.08629 0.995389 0.0 
1.08969 1.00026 0.0 
1.08288 1.00009 0.0 
1.09035 0.999722 0.0 
1.08077 0.99911 0.0 
1.07965 0.999204 0.0 
1.09045 1.00129 0.0 
1.08702 1.00186 0.0 
1.09558 1.01261 0.0 
1.08262 1.00101 0.0 
1.09214 0.994412 0.0 
1.05293 1.00327 0.0 
1.10248 1.00474 0.0 
[...]
<PointData>
  <DataArray type = "Float64" Name="Vitesse" NumberOfComponents="3" format="ascii">
0.0430654 0.0698074 0.0 
-0.0183167 0.0407806 0.0 
0.156494 -0.0135115 0.0 
-0.0152467 0.0137229 0.0 
0.105371 0.000920288 0.0 
-0.0286501 0.0568088 0.0 
-0.021807 0.021693 0.0 
0.170579 0.0321667 0.0 
-0.0231495 0.0123092 0.0 
0.0346462 0.0703004 0.0 
-0.0329668 0.0530912 0.0 
0.0355434 0.0427954 0.0 
-0.0205223 0.0558786 0.0 
-0.0244362 0.0410679 0.0 
0.150214 0.0371913 0.0 
-0.00846937 0.0504403 0.0 
0.0811311 0.0590682 0.0 
0.0812949 0.0498069 0.0 
0.0653531 -0.0159422 0.0 
0 0 0.0 
-0.0183443 0.0654169 0.0 
0.0131753 0.0750523 0.0 
0.222968 -0.00794849 0.0 
0.0611596 -0.0563984 0.0 
0.126553 0.0172827 0.0 
0 0 0.0 
0.156731 -0.000866299 0.0 
0.278046 -0.113412 0.0 
0 0 0.0 
-0.00978544 0.00888962 0.0 
-0.00741459 0.00691338 0.0 
0 0 0.0 
-0.00804179 0.00763196 0.0 
0.30406 0.00644582 0.0 
0.139169 0.0130151 0.0 
0.182257 -0.00628756 0.0 
0.0896104 -0.000486854 0.0 
0.354627 -0.103467 0.0 
-0.0165748 0.0172142 0.0 
0.0953326 -0.0243923 0.0 
-0.00927729 0.00798846 0.0 
0.013623 0.0359122 0.0 
0.0378008 0.0253417 0.0 
0.0348214 0.0347728 0.0 
0.0479067 0.0565422 0.0 
-0.0157114 0.0463774 0.0 
0.0378105 0.0701387 0.0 
0.0642033 0.0532064 0.0 
-0.00900173 0.0072003 0.0 
-0.0152758 0.0148127 0.0 
-0.0169439 0.0213885 0.0 
0.133784 0.0332516 0.0 
-0.0109827 0.0580488 0.0 
0.0139914 0.0707012 0.0 
0 0 0.0 
0.149268 0.0292204 0.0 
-0.00808656 0.00683265 0.0 
0.161886 0.039377 0.0 
0.0246914 0.0115503 0.0 
0.00482177 0.0307265 0.0 
0.000151323 0.075636 0.0 
0.073922 -0.0248347 0.0 
0 0 0.0 
0.0506596 0.0275226 0.0 
0.0706903 0.0561601 0.0 
-0.0204797 0.0194202 0.0 
0.0557686 0.0163689 0.0 
0 0 0.0 
-0.00850148 0.00642055 0.0 
0.0155112 0.0655624 0.0 
-0.0164476 0.0252348 0.0 
0.0626972 0.00128183 0.0 
0 0 0.0 
0.0845633 0.0376355 0.0 
0.0346438 0.00806948 0.0 
0.0668599 0.00587918 0.0 
0.0528018 0.0101775 0.0 
0.0214678 0.0278536 0.0 
0.832974 0.00475693 0.0 
0.0520934 0.0271936 0.0 
0.0367587 -0.0332866 0.0 
0.0313716 0.0229794 0.0 
0 0 0.0 
0.0690081 0.0623943 0.0 
0.0822816 0.0134729 0.0 
0.0283664 0.0738909 0.0 
0 0 0.0 
-0.0253991 0.0297355 0.0 
0.160992 0.0349926 0.0 
-0.00588909 0.0138198 0.0 
0 0 0.0 
0.0887047 0.0553981 0.0 
-0.0296588 0.0441247 0.0 
0 0 0.0 
-0.00337726 0.0163162 0.0 
-0.00490754 0.0057471 0.0 
0 0 0.0 
-0.0109602 0.034488 0.0 
0.0397631 0.0489462 0.0 
0.0150314 0.0298298 0.0 
-0.00348016 0.0426228 0.0 
0.0553508 0.0440768 0.0 
0.0895479 0.00348654 0.0 
-0.00578295 0.063824 0.0 
0.0681187 0.0259512 0.0 
-0.00321045 0.0251121 0.0 
0.139784 0.0383159 0.0 
0.0211873 0.00858653 0.0 
0.0845489 0.0273595 0.0 
0.0927894 -0.00642402 0.0 
0.200787 0.0020759 0.0 
0.0246937 0.0734845 0.0 
0.113141 0.0461863 0.0 
0.0793405 0.0318213 0.0 
-0.006446 0.0242997 0.0 
0.0549795 0.066431 0.0 
0.104359 0.0493053 0.0 
0.00917413 0.0601079 0.0 
-0.0121309 0.0114741 0.0 
0.0341365 0.0131118 0.0 
-0.189989 -0.195536 0.0 
0 0 0.0 
0 0 0.0 
0.00825025 0.00012798 0.0 
0 0 0.0 
0.030364 0.0276686 0.0 
0 0 0.0 
0.0368684 0.00577849 0.0 
0.0235099 0.0321417 0.0 
0.0117402 0.00463247 0.0 
0.0456838 0.0241086 0.0 
0.127474 0.00864505 0.0 
-0.0122415 0.0183214 0.0 
0.0420737 0.0534637 0.0 
0.116973 0.0501579 0.0 
0.0248212 0.0607339 0.0 
0.0374945 0.0602301 0.0 
0.0461326 0.0620515 0.0 
-0.0211915 0.0203912 0.0 
-0.0342933 0.0472373 0.0 
0.0181182 0.052011 0.0 
0.0318773 0.00579507 0.0 
-0.0107428 0.00843643 0.0 
0.0973677 0.051025 0.0 
-0.00902582 0.00851578 0.0 
0.00401276 0.0461348 0.0 
0.0920103 0.0425501 0.0 
0 0 0.0 
0.0980397 0.0547488 0.0 
0.0594697 0.0126136 0.0 
0 0 0.0 
-0.0141749 0.0129249 0.0 
0.0664845 0.0182079 0.0 
0.0942407 0.0293371 0.0 
0.0195073 0.0162869 0.0 
0 0 0.0 
0.0531135 0.0199225 0.0 
0.0373582 0.0556946 0.0 
0.0670227 0.0224229 0.0 
0 0 0.0 
0.016336 0.0190183 0.0 
0.0504389 0.0333146 0.0 
0 0 0.0 
-0.012107 0.0230446 0.0 
0.041261 0.0661945 0.0 
0.0332862 0.0173395 0.0 
0.0559147 0.0101247 0.0 
0.0583849 0.0331948 0.0 
-0.00043268 0.0296962 0.0 
0.0531605 0.0604895 0.0 
0.0238409 0.00282191 0.0 
0.00432086 0.0030703 0.0 
-0.0294909 0.0332837 0.0 
0.111709 0.0387619 0.0 
0.282761 0.00111774 0.0 
0.0743423 0.0455861 0.0 
0.0573842 0.0484944 0.0 
0.0289082 0.0656696 0.0 
0 0 0.0 
0.118919 0.0422391 0.0 
0.000262234 0.0264016 0.0 
0.0611489 0.0584196 0.0 
0.0838231 0.0229128 0.0 
0.142657 0.0439542 0.0 
0.0343461 0.0353553 0.0 
0 0 0.0 
0.0757468 0.0456405 0.0 
0.0282982 0.0392923 0.0 
-0.025251 0.0259839 0.0 
0.138415 0.00650866 0.0 
0.0188979 0.00979307 0.0 
0.0163743 0.0422198 0.0 
-0.00347114 0.00229786 0.0 
0.081007 0.00712476 0.0 
-0.00438898 0.0158804 0.0 
-0.00557545 0.0186252 0.0 
0.0263841 0.0705941 0.0 
0.123194 0.0454063 0.0 
0 0 0.0 
0 0 0.0 
0.0951521 0.0551689 0.0 
0.00186055 0.0541424 0.0 
-0.00711368 0.00784079 0.0 
0.0363206 0.015762 0.0 
0.1118 0.0267755 0.0 
0 0 0.0 
0.0135831 0.00844255 0.0 
0 0 0.0 
0.0752879 0.0566649 0.0 
0.0399531 -0.00609562 0.0 
0.0929397 0.033838 0.0 
-0.0218045 0.023701 0.0 
-0.00862003 0.00760789 0.0 
-0.00822304 0.00600797 0.0 
-0.00590586 0.0115766 0.0 
0 0 0.0 
0 0 0.0 
0.135337 0.0457909 0.0 
0.153919 0.0231605 0.0 
0.0372308 0.0630498 0.0 
-0.0269359 0.0279435 0.0 
0.100796 0.0160813 0.0 
0.118361 0.0117025 0.0 
0.0875778 0.0216237 0.0 
0.0154329 0.00598519 0.0 
0.11441 0.0383882 0.0 
0.0245544 0.055664 0.0 
0.151204 0.0421972 0.0 
0 0 0.0 
0.0130885 0.0550785 0.0 
0.158471 0.0298213 0.0 
0.0536777 0.00153984 0.0 
-0.0123597 0.0291091 0.0 
0.0588918 0.00274301 0.0 
-0.0147529 0.0138988 0.0 
0.0538732 0.0508536 0.0 
0.00040449 0.00940898 0.0 
0.0513795 0.00847172 0.0 
0.12949 0.0415133 0.0 
0.0146829 0.0258295 0.0 
0.109398 0.0117159 0.0 
0.13636 0.0434928 0.0 
0.182858 0.0361079 0.0 
0.0479225 0.066678 0.0 
0.167074 0.0388081 0.0 
-0.00886208 0.0100342 0.0 
0.091426 0.00924452 0.0 
0.0364581 0.0490213 0.0 
0.0661012 0.0398818 0.0 
0.00606731 0.0135394 0.0 
-0.0119359 0.0152619 0.0 
-0.00764506 0.00546702 0.0 
0.0191819 0.00131345 0.0 
0.0391147 0.0312071 0.0 
-0.00515413 0.00332085 0.0 
0.0145918 0.0476472 0.0 
0.00640955 0.0357227 0.0 
0.182559 0.0266874 0.0 
0.00388203 0.0181452 0.0 
-0.0303245 0.0386697 0.0 
0.0494585 0.0651071 0.0 
0.0734945 0.018358 0.0 
0.00800357 0.0221239 0.0 
0.0602538 0.0635908 0.0 
0.001801 0.00694228 0.0 
-0.00616049 0.00418159 0.0 
0.0196316 0.0355346 0.0 
0.582118 -0.0726462 0.0 
0.0730124 0.0386522 0.0 
0.136958 -0.00474941 0.0 
0.136203 -0.0165041 0.0 
0.0304494 0.00404802 0.0 
0.027821 0.0447187 0.0 
0.151637 0.0129194 0.0 
0.0592416 -0.00837397 0.0 
0.12194 -0.024841 0.0 
0.00801998 0.0400596 0.0 
0.163859 -0.00737632 0.0 
-0.0081667 0.00711539 0.0 
0.0111817 0.022937 0.0 
-0.00815096 0.0389438 0.0 
0.000251226 0.00473382 0.0 
0.0484786 0.019729 0.0 
0 0 0.0 
-0.0147818 0.0130161 0.0 
0.000685598 0.000418063 0.0 
0.00255235 0.0688368 0.0 
0.109918 0.0510762 0.0 
-0.000640816 0.0333252 0.0 
-0.00820849 0.0209341 0.0 
0.0490336 0.00526097 0.0 
0.0418323 0.040462 0.0 
0.00530593 0.01148 0.0 
0.012478 0.0150672 0.0 
0.00389668 0.0401588 0.0 
0.046535 0.0678968 0.0 
-0.181814 -0.184101 0.0 
0.0176665 0.0627551 0.0 
0.109963 0.00353564 0.0 
0.0307686 0.0593698 0.0 
0.0724961 0.0610021 0.0 
0.050066 0.0440147 0.0 
0.0753072 0.0593993 0.0 
0.455283 -0.00898031 0.0 
0.160129 0.0384313 0.0 
0.106141 0.0201287 0.0 
0 0 0.0 
0.0325739 0.0195508 0.0 
0.0687165 0.0263179 0.0 
0.106471 0.0518482 0.0 
0.104919 -0.000216992 0.0 
0.639818 -0.0740503 0.0 
0.530451 -0.00282675 0.0 
0.0713025 0.052699 0.0 
0.0902361 0.0548967 0.0 
0.00238853 0.0211451 0.0 
0 0 0.0 
0.107729 0.0232123 0.0 
0.179895 0.0203674 0.0 
0.0867812 0.0305707 0.0 
-0.0196383 0.0193443 0.0 
0.0871611 0.00277156 0.0 
0.0677421 -0.0449054 0.0 
0.101857 0.0435819 0.0 
0.0284234 0.0541509 0.0 
0.0055772 0.00154172 0.0 
0.090607 0.0400342 0.0 
-0.0011051 0.00165267 0.0 
0.0256176 0.0499974 0.0 
0.0839362 0.0124453 0.0 
0.0267283 0.0391389 0.0 
0.0201959 0.0574075 0.0 
0.123494 0.0471442 0.0 
-0.0458845 -0.121823 0.0 
0.0197487 0.0425897 0.0 
0.0534647 0.0664792 0.0 
0.115327 0.0274759 0.0 
0.0618649 0.0608487 0.0 
0.177644 0.0122379 0.0 
0.100679 0.035258 0.0 
0.0759935 0.0579334 0.0 
0.120134 0.0182988 0.0 
0.507847 0.00432759 0.0 
0.0584548 0.0628691 0.0 
0.0519011 0.0561743 0.0 
0.166431 -0.125312 0.0 
-0.0786481 -0.111814 0.0 
0.119308 0.0320547 0.0 
0.08623 0.0575896 0.0 
-0.0254616 0.0485072 0.0 
0.126719 0.0321937 0.0 
0.611341 -0.03664 0.0 
0.182441 0.0322193 0.0 
0.0669806 0.0320645 0.0 
0.199943 0.0303872 0.0 
-0.0138362 0.0220643 0.0 
0.0916074 0.0481395 0.0 
0.0743989 0.00228954 0.0 
0.121286 -0.132073 0.0 
0.101643 0.0113056 0.0 
0.282967 -0.00302457 0.0 
-0.0214972 0.0297055 0.0 
0.0565652 0.0384184 0.0 
0.127608 0.0467568 0.0 
-0.166361 -0.179173 0.0 
0.119371 0.00567764 0.0 
0.0548518 -0.0258305 0.0 
0.0155088 0.0169874 0.0 
0 0 0.0 
-0.159517 -0.154127 0.0 
-0.143563 -0.141189 0.0 
0.333159 -0.00113154 0.0 
0.359717 -0.01277 0.0 
0.758082 -0.0687825 0.0 
-0.150864 -0.174512 0.0 
-0.0819771 -0.124982 0.0 
-0.0903652 -0.169779 0.0 
0.257633 -0.114396 0.0 
-0.0308255 0.00163105 0.0 
-0.184077 -0.190912 0.0 
-0.0583938 -0.12233 0.0 
-0.0804173 -0.156393 0.0 
-0.15656 -0.126911 0.0 
0.000755396 -0.104807 0.0 
0.0209149 -0.0904138 0.0 
0.880065 0.00531902 0.0 
0.86014 -0.000457527 0.0 
0.0102428 -0.15262 0.0 
0.598913 -0.0898832 0.0 
0.208011 -0.0478737 0.0 
0.343719 -0.0184101 0.0 
-0.0120375 -0.0149198 0.0 
0.149814 -0.130834 0.0 
-0.171446 -0.180023 0.0 
-0.022662 -0.0109129 0.0 
0.00254804 0.00727637 0.0 
0.0795203 -0.127611 0.0 
0.0809419 -0.0791727 0.0 
0.290251 0.0146179 0.0 
-0.156403 -0.169584 0.0 
-0.0591771 -0.100987 0.0 
-0.117048 -0.160341 0.0 
-0.143877 -0.169711 0.0 
-0.198364 -0.203263 0.0 
0.4636 -0.0420237 0.0 
-0.194933 -0.202401 0.0 
-0.147676 -0.106134 0.0 
-0.156575 -0.140448 0.0 
-0.164286 -0.151532 0.0 
0.0312691 -0.0666122 0.0 
0.0124459 -0.0433659 0.0 
-0.110121 -0.147402 0.0 
0.0737177 -0.116774 0.0 
-0.169698 -0.176048 0.0 
-0.074433 -0.0867351 0.0 
-0.0525231 -0.15898 0.0 
-0.140673 -0.175267 0.0 
0.385795 -0.0894967 0.0 
-0.0253806 -0.111753 0.0 
-0.0156186 -0.090572 0.0 
0.0453287 -0.138123 0.0 
-0.0944676 -0.142959 0.0 
-0.00626781 -0.064678 0.0 
-0.0335533 -0.0412225 0.0 
-0.0274268 -0.00543226 0.0 
0.370249 -0.0245575 0.0 
0.397736 -0.00615834 0.0 
0.0102913 -0.0832416 0.0 
-0.18907 -0.196423 0.0 
0.335801 0.00251855 0.0 
-0.0469089 -0.088555 0.0 
0.419147 -0.0792265 0.0 
-0.116973 -0.155457 0.0 
-0.0133675 -0.082876 0.0 
0.0101212 -0.0652309 0.0 
-0.147115 -0.180581 0.0 
0.108696 -0.120022 0.0 
-0.0339575 -0.0906176 0.0 
-0.01035 -0.0978802 0.0 
-0.161766 -0.190483 0.0 
0.577496 -0.0534026 0.0 
-0.0692522 -0.0910613 0.0 
0.375507 0.0108215 0.0 
-0.198463 -0.203494 0.0 
0.480884 -0.000239674 0.0 
-0.121403 -0.0926577 0.0 
-0.0502776 -0.101628 0.0 
0.00771259 -0.120604 0.0 
-0.130016 -0.134269 0.0 
0.027943 -0.0782813 0.0 
-0.0300882 -0.0727643 0.0 
-0.124952 -0.147352 0.0 
-0.0416832 -0.103165 0.0 
-0.0154153 0.0048395 0.0 
-0.141956 -0.110024 0.0 
-0.0659335 -0.111725 0.0 
-0.0268856 -0.0448178 0.0 
-0.0874916 -0.122319 0.0 
-0.0432893 -0.0274197 0.0 
-0.0367146 -0.0154003 0.0 
-0.0378616 -0.110376 0.0 
0.00662832 -0.0755015 0.0 
0.523792 -0.0832235 0.0 
0.000735211 -0.038236 0.0 
-0.17555 -0.174711 0.0 
-0.0259155 0.0363204 0.0 
0.000845053 -0.152021 0.0 
0.485099 -0.0643293 0.0 
0.113324 -0.086449 0.0 
0.343435 0.0141706 0.0 
-0.148961 -0.11601 0.0 
-0.0606882 -0.11673 0.0 
-0.114901 -0.144002 0.0 
0.766138 -0.0449237 0.0 
0.252811 -0.000162393 0.0 
-0.192403 -0.198346 0.0 
-0.119073 -0.104151 0.0 
0.691442 0.00168535 0.0 
-0.14057 -0.158532 0.0 
-0.0391424 -0.154319 0.0 
0.757567 -0.00860944 0.0 
-0.0800982 -0.0517277 0.0 
0.479646 -0.0342415 0.0 
0.425626 -0.0379851 0.0 
-0.108813 -0.0898903 0.0 
0.313888 -0.0179855 0.0 
0.00327626 -0.00940215 0.0 
-0.162588 -0.178945 0.0 
0.0158119 -0.151528 0.0 
-0.176336 -0.179192 0.0 
-0.205938 -0.200952 0.0 
-0.184336 -0.197579 0.0 
-0.0311027 -0.15966 0.0 
0.242996 -0.0732044 0.0 
-0.181676 -0.18466 0.0 
0.793054 -0.0249298 0.0 
-0.0551373 -0.0775582 0.0 
0.559666 -0.0354466 0.0 
0.27718 0.0130657 0.0 
-0.0132066 -0.0351743 0.0 
0.317565 -0.00543702 0.0 
0.00305692 -0.153349 0.0 
-0.182502 -0.192316 0.0 
0.466802 -0.0956298 0.0 
0.570821 -0.0634395 0.0 
-0.165603 -0.161239 0.0 
-0.0255511 -0.0783971 0.0 
-0.156607 -0.156299 0.0 
0.702868 -0.0511179 0.0 
0.226932 -0.110924 0.0 
0.646759 0.000884859 0.0 
0.576108 -0.0159268 0.0 
0.046339 -0.0509237 0.0 
-0.190881 -0.199407 0.0 
-0.188718 -0.202025 0.0 
-0.178617 -0.185115 0.0 
0.103051 -0.106185 0.0 
0.12611 -0.093834 0.0 
0.466476 -0.0223504 0.0 
-0.164872 -0.14955 0.0 
-0.13986 -0.123951 0.0 
-0.205046 -0.198225 0.0 
-0.105378 -0.13527 0.0 
0.511066 -0.0331661 0.0 
0.711639 -0.0718444 0.0 
-0.0866124 -0.0746996 0.0 
0.586292 -0.0224957 0.0 
-0.00739138 -0.152282 0.0 
0.290561 -0.0032533 0.0 
0.22173 -0.121486 0.0 
-0.153136 -0.140892 0.0 
0.0860559 -0.0992423 0.0 
-0.0660971 -0.050301 0.0 
0.0159717 -0.150558 0.0 
-0.210808 -0.203437 0.0 
-0.00319025 -0.101009 0.0 
-0.171627 -0.171481 0.0 
0.551653 -0.0857482 0.0 
-0.151639 -0.111369 0.0 
-0.0967768 -0.0867639 0.0 
-0.151249 -0.108627 0.0 
-0.0666127 -0.0414749 0.0 
-0.0601932 -0.0701598 0.0 
-0.170096 -0.163684 0.0 
0.511683 -0.0274075 0.0 
0.0268438 -0.0562179 0.0 
-0.0831249 -0.0839416 0.0 
0.85318 -0.0109884 0.0 
0.110307 -0.111969 0.0 
0.497814 -0.0126875 0.0 
0.797276 -0.0502028 0.0 
-0.159408 -0.140359 0.0 
-0.208504 -0.20621 0.0 
-0.0135402 -0.0571501 0.0 
0.105112 -0.0161593 0.0 
0.0224612 -0.0027838 0.0 
-0.118963 -0.179152 0.0 
-0.0974639 -0.164415 0.0 
-0.163095 -0.146975 0.0 
-0.0915812 -0.132462 0.0 
-0.145715 -0.184523 0.0 
-0.134883 -0.107557 0.0 
0.0524111 -0.10825 0.0 
-0.163813 -0.179728 0.0 
-0.202651 -0.203749 0.0 
0.149748 -0.0737226 0.0 
-0.0912809 -0.0661411 0.0 
0.727366 -0.0155098 0.0 
-0.0517982 -0.0201946 0.0 
-0.11262 -0.105867 0.0 
-0.169697 -0.161121 0.0 
-0.169185 -0.169547 0.0 
-0.130745 -0.141553 0.0 
0.053664 -0.128088 0.0 
0.0411922 -0.14623 0.0 
-0.153128 -0.124295 0.0 
0.0212433 -0.0306419 0.0 
-0.183677 -0.188259 0.0 
-0.142489 -0.145902 0.0 
0.578181 0.000716234 0.0 
-0.17616 -0.174836 0.0 
0.21024 0.00917298 0.0 
0.487273 -0.0875122 0.0 
0.00736252 -0.0266737 0.0 
-0.17369 -0.176947 0.0 
-0.193336 -0.19646 0.0 
-0.122842 -0.141783 0.0 
0.465818 -0.0819943 0.0 
0.335182 -0.0326033 0.0 
-0.00917461 -0.00387603 0.0 
-0.181321 -0.196678 0.0 
-0.0921309 -0.171327 0.0 
0.678622 -0.0339057 0.0 
0.108014 -0.0764264 0.0 
0.0306806 -0.144414 0.0 
0.616535 -0.0440252 0.0 
-0.151181 -0.161733 0.0 
-0.0779992 -0.130251 0.0 
0.62654 -0.0107833 0.0 
-0.116179 -0.127895 0.0 
-0.157676 -0.133336 0.0 
-0.102752 -0.115072 0.0 
-0.0356977 -0.0691305 0.0 
0.033184 -0.0451343 0.0 
-0.193561 -0.198979 0.0 
-0.178614 -0.194241 0.0 
-0.163349 -0.167106 0.0 
-0.0649922 -0.163602 0.0 
0.288723 -0.114155 0.0 
-0.137991 -0.151699 0.0 
0.0847668 -0.131322 0.0 
0.544495 0.00317187 0.0 
0.195028 -0.0935283 0.0 
0.313049 -0.0444213 0.0 
0.844918 -0.00556128 0.0 
0.0567605 -0.0368249 0.0 
-0.20098 -0.204152 0.0 
0.181726 -0.124375 0.0 
0.547607 0.0035257 0.0 
0.202276 0.0285583 0.0 
-0.128256 -0.163749 0.0 
0.238064 -0.0990998 0.0 
-0.14805 -0.130777 0.0 
-0.0538295 -0.0860363 0.0 
0.277878 -0.109116 0.0 
0.401271 -0.0252146 0.0 
-0.10524 -0.0763956 0.0 
-0.189162 -0.189505 0.0 
0.0141232 -0.0145788 0.0 
0.249915 -0.00953957 0.0 
-0.132181 -0.128354 0.0 
-0.179558 -0.176274 0.0 
-0.0566558 -0.055978 0.0 
0.282751 -0.0013411 0.0 
-0.125059 -0.100585 0.0 
-0.180641 -0.195434 0.0 
0.27815 -0.0222702 0.0 
-0.07205 -0.167018 0.0 
0.323008 -0.108712 0.0 
-0.0417338 -0.0551719 0.0 
-0.0738855 -0.0702962 0.0 
0.663274 -0.0505199 0.0 
-0.0266139 -0.100497 0.0 
0.535343 -0.0539958 0.0 
-0.186302 -0.191302 0.0 
0.295328 -0.066534 0.0 
0.43868 -0.0576357 0.0 
-0.118234 -0.121506 0.0 
0.473196 0.00326186 0.0 
0.23082 -0.0283184 0.0 
-0.0225474 -0.152844 0.0 
-0.188705 -0.194079 0.0 
-0.134396 -0.167627 0.0 
0.0698068 -0.137221 0.0 
-0.197489 -0.202436 0.0 
-0.00334759 -0.0213111 0.0 
0.416931 -0.00245577 0.0 
-0.0909902 -0.0954342 0.0 
0.0870797 -0.088468 0.0 
-0.186286 -0.194949 0.0 
-0.147184 -0.167744 0.0 
-0.127706 -0.155133 0.0 
0.347708 -0.0949884 0.0 
-0.03053 -0.138538 0.0 
-0.032699 -0.0287868 0.0 
0.0782793 -0.138401 0.0 
-0.0374256 -0.062386 0.0 
-0.142 -0.103725 0.0 
0.0962893 -0.138139 0.0 
-0.161383 -0.151497 0.0 
0.217824 -0.0790443 0.0 
-0.162344 -0.152273 0.0 
0.131272 -0.0659935 0.0 
0.275658 -0.0104285 0.0 
-0.118979 -0.175709 0.0 
0.0334708 0.0726578 0.0 
0.0232214 -0.0215812 0.0 
-0.102891 -0.0963594 0.0 
-0.159818 -0.136369 0.0 
-0.204129 -0.20779 0.0 
0.133068 -0.111207 0.0 
0.0611933 -0.09073 0.0 
0.0160705 -0.134713 0.0 
-0.0858528 -0.16261 0.0 
-0.17477 -0.172248 0.0 
0.707879 -0.0227633 0.0 
0.00334822 -0.131051 0.0 
0.271993 -0.0964005 0.0 
-0.15382 -0.147272 0.0 
0.246091 -0.092046 0.0 
-0.17993 -0.185428 0.0 
-0.150634 -0.125764 0.0 
0.432466 -0.0888778 0.0 
0.62017 -0.0680368 0.0 
0.041569 -0.0185863 0.0 
-0.103813 -0.122297 0.0 
0.0795948 -0.0604007 0.0 
0.347694 -0.00218843 0.0 
-0.14362 -0.133766 0.0 
0.0272173 -0.0109438 0.0 
0.322251 -0.0569455 0.0 
-0.201339 -0.193729 0.0 
-0.131367 -0.113728 0.0 
-0.0963723 -0.168266 0.0 
-0.0996475 -0.139335 0.0 
-0.122757 -0.180133 0.0 
0.397889 0.00907201 0.0 
-0.142681 -0.0981568 0.0 
0.285668 -0.113586 0.0 
-0.180757 -0.192834 0.0 
-0.166313 -0.158064 0.0 
-0.00117389 -0.150193 0.0 
-0.0710205 -0.0997605 0.0 
-0.13318 -0.123063 0.0 
0.37169 0.00450095 0.0 
-0.153654 -0.118311 0.0 
-0.16073 -0.169321 0.0 
-0.0142812 -0.122133 0.0 
0.0126965 -0.0532256 0.0 
-0.0966288 -0.122987 0.0 
-0.0430762 -0.0389823 0.0 
-0.053285 -0.0396899 0.0 
0.827277 -0.0163555 0.0 
-0.0200294 -0.0272551 0.0 
-0.0597905 -0.145577 0.0 
-0.121967 -0.115382 0.0 
-0.117759 -0.085517 0.0 
0.254857 0.00828575 0.0 
-0.183005 -0.193836 0.0 
-0.131633 -0.0943358 0.0 
-0.0101494 -0.0753071 0.0 
-0.10565 -0.107579 0.0 
0.178561 -0.126511 0.0 
0.74868 -0.0535271 0.0 
-0.201164 -0.183868 0.0 
-0.141696 -0.118509 0.0 
0.263227 -0.0514077 0.0 
0.0509719 -0.14564 0.0 
-0.0902622 -0.112467 0.0 
0.225937 0.00143132 0.0 
0.221556 -0.0548926 0.0 
0.483763 -0.0177913 0.0 
0.488416 -0.00470027 0.0 
-0.087587 -0.102365 0.0 
0.636501 -0.00159587 0.0 
0.116904 -0.129166 0.0 
0.0347588 -0.0959715 0.0 
-0.025636 -0.0192359 0.0 
-0.0761434 -0.061609 0.0 
0.745854 -0.00238736 0.0 
0.520984 -0.0613815 0.0 
-0.119446 -0.168405 0.0 
-0.112721 -0.132438 0.0 
-0.153389 -0.187659 0.0 
-0.170682 -0.16761 0.0 
0.102562 -0.0528219 0.0 
-0.170641 -0.165031 0.0 
0.159208 0.000346527 0.0 
-0.154322 -0.121971 0.0 
0.486238 -0.0535978 0.0 
0.328481 0.0115962 0.0 
-0.0977646 -0.0788083 0.0 
0.202372 0.0111103 0.0 
0.34127 -0.100286 0.0 
0.137365 -0.102038 0.0 
-0.148841 -0.155234 0.0 
-0.0931005 -0.157015 0.0 
0.226292 0.0114881 0.0 
-0.0127133 -0.147782 0.0 
0.311381 0.0164049 0.0 
0.178033 -0.0219836 0.0 
0.584227 0.0030828 0.0 
-0.0112543 -0.129389 0.0 
0.222894 0.0278792 0.0 
0.156368 -0.0281702 0.0 
0.139734 -0.0835752 0.0 
0.234257 0.016144 0.0 
0.500979 -0.0906141 0.0 
0.243666 -0.0187489 0.0 
-0.193952 -0.207115 0.0 
0.142111 -0.0412574 0.0 
0.072391 -0.00372566 0.0 
0.075122 -0.108398 0.0 
0.155488 0.00818708 0.0 
-0.00974009 -0.156018 0.0 
0.417671 -0.0847774 0.0 
0.152207 0.00529589 0.0 
0.225595 0.0115318 0.0 
-0.0284381 -0.143377 0.0 
-0.0217536 -0.156532 0.0 
0.536405 -0.0138264 0.0 
0.224791 0.0225267 0.0 
0.20009 -0.0187852 0.0 
0.260229 -0.107713 0.0 
0.153048 0.0156185 0.0 
0.144223 0.00321805 0.0 
0.250831 0.0168309 0.0 
0.59224 0.00391262 0.0 
0.247024 0.0256639 0.0 
0.218431 0.0301446 0.0 
-0.14462 -0.179706 0.0 
-0.0405459 -0.150853 0.0 
-0.0934906 -0.167108 0.0 
0.280673 0.00279909 0.0 
0.157 0.025269 0.0 
0.179225 0.0277828 0.0 
0.51908 0.00113182 0.0 
0.23753 0.000452783 0.0 
0.221865 0.0247029 0.0 
0.394393 0.00458772 0.0 
0.219188 -0.0164143 0.0 