<VTKFile type="UnstructuredGrid" version="0.1" byte_order="LittleEndian">
  <UnstructuredGrid>
    <Piece NumberOfPoints="16586" NumberOfCells="32634">
      <Points>
        <DataArray type = "Float64" NumberOfComponents="3" format="ascii">
1.1488 0.975626 0.0 
0.877449 0.945966 0.0 
1.12702 0.970865 0.0 
1.12456 0.97665 0.0 
1.15679 0.976906 0.0 
1.11991 0.959359 0.0 
1.11768 0.968513 0.0 
1.1237 0.986477 0.0 
1.09826 0.999218 0.0 
1.09775 0.998649 0.0 
1.09735 0.999577 0.0 
1.10365 0.980045 0.0 
1.12886 0.963364 0.0 
1.10038 0.98394 0.0 
1.1015 0.997885 0.0 
1.14351 0.979286 0.0 
1.08562 0.978365 0.0 
1.14338 0.973431 0.0 
1.14592 0.973009 0.0 
1.1332 0.970931 0.0 
1.17115 0.785274 0.0 
1.10521 0.842296 0.0 
1.13136 0.973088 0.0 
1.11949 0.976822 0.0 
1.12272 0.984898 0.0 
1.12844 0.979339 0.0 
1.09844 0.985255 0.0 
1.1215 0.976353 0.0 
1.13076 0.974596 0.0 
1.10199 0.995612 0.0 
1.1254 0.982604 0.0 
1.14312 0.974251 0.0 
1.1586 0.974389 0.0 
1.03184 0.988935 0.0 
1.07543 0.985559 0.0 
1.08624 0.992008 0.0 
1.02257 0.990249 0.0 
1.07758 0.983587 0.0 
1.04677 0.99797 0.0 
1.03762 0.987153 0.0 
1.08518 0.988681 0.0 
1.02193 0.990984 0.0 
1.08573 0.989925 0.0 
1.11236 0.990481 0.0 
1.03572 0.986941 0.0 
1.1524 0.974886 0.0 
1.06117 0.997066 0.0 
1.07809 0.977703 0.0 
1.08277 0.989451 0.0 
1.12681 0.980234 0.0 
1.13093 0.964202 0.0 
1.06634 1.00313 0.0 
1.01786 0.993275 0.0 
1.02172 0.997049 0.0 
1.01733 0.993929 0.0 
1.02338 0.989517 0.0 
1.09366 0.993621 0.0 
1.03933 0.974857 0.0 
1.14119 0.973664 0.0 
1.07967 0.989569 0.0 
1.01866 0.991714 0.0 
1.05841 0.990675 0.0 
1.14927 0.980728 0.0 
1.16153 0.980148 0.0 
1.11389 0.991951 0.0 
1.06601 0.99607 0.0 
1.04966 0.990573 0.0 
1.02209 0.996083 0.0 
1.05923 1.00371 0.0 
1.04299 0.997148 0.0 
1.05864 0.997101 0.0 
1.12985 0.977111 0.0 
1.05387 0.999554 0.0 
1.02504 0.99616 0.0 
1.08598 0.983334 0.0 
1.01998 0.991246 0.0 
1.06792 1.00046 0.0 
1.06776 1.00385 0.0 
1.08598 0.99306 0.0 
1.03511 0.986384 0.0 
1.01716 0.992727 0.0 
1.02539 0.990417 0.0 
1.02408 0.994109 0.0 
1.02561 0.992281 0.0 
1.01885 0.991052 0.0 
1.07959 0.981605 0.0 
1.07783 0.99961 0.0 
1.02358 0.990516 0.0 
1.08148 0.990383 0.0 
1.07831 0.97939 0.0 
1.04543 0.993208 0.0 
1.08892 0.992306 0.0 
1.10487 0.984451 0.0 
1.04269 1.00227 0.0 
1.02086 0.991629 0.0 
1.02636 0.992744 0.0 
1.06224 1.00435 0.0 
1.06494 0.999966 0.0 
1.12883 0.973347 0.0 
1.07406 0.995268 0.0 
1.229 0.78512 0.0 
1.15664 0.975732 0.0 
1.07818 1.0021 0.0 
1.02818 0.995046 0.0 
1.07617 0.979121 0.0 
1.14493 0.9767 0.0 
1.12976 0.975725 0.0 
1.04332 0.990765 0.0 
1.16126 0.973005 0.0 
1.03583 0.991327 0.0 
1.07279 0.984919 0.0 
1.07147 1.00274 0.0 
1.02885 0.989191 0.0 
1.02434 0.991747 0.0 
1.04854 1.00257 0.0 
1.07992 0.984267 0.0 
1.12201 0.984693 0.0 
1.12368 0.977658 0.0 
1.01899 0.993283 0.0 
1.03236 0.987364 0.0 
1.04336 1.00172 0.0 
1.08813 0.995188 0.0 
1.02384 0.991023 0.0 
1.01818 0.994491 0.0 
1.08165 0.988719 0.0 
1.0685 0.995839 0.0 
1.14965 0.97494 0.0 
1.02783 0.99031 0.0 
1.08161 0.987306 0.0 
1.02454 0.994813 0.0 
1.07496 0.98048 0.0 
1.11285 0.990857 0.0 
1.07508 1.00493 0.0 
1.02187 0.989123 0.0 
1.0216 0.992625 0.0 
1.02188 0.993611 0.0 
1.12772 0.969589 0.0 
1.15941 0.98127 0.0 
1.12357 0.97139 0.0 
1.02435 0.99564 0.0 
1.02924 0.99589 0.0 
1.02987 0.989666 0.0 
1.1503 0.976538 0.0 
1.0753 1.00257 0.0 
1.11136 0.978542 0.0 
1.03615 0.993607 0.0 
1.11689 0.974087 0.0 
1.08109 0.986683 0.0 
1.01955 0.992667 0.0 
1.02066 0.990629 0.0 
1.02781 0.991347 0.0 
1.01867 0.992462 0.0 
1.04764 0.985794 0.0 
1.02607 0.996154 0.0 
1.07755 1.00417 0.0 
1.16124 0.979518 0.0 
1.04809 1.00293 0.0 
1.15194 0.972296 0.0 
1.02132 0.994978 0.0 
1.02242 0.995198 0.0 
1.01918 0.994158 0.0 
1.07815 0.988863 0.0 
1.08403 0.987702 0.0 
1.03664 0.992336 0.0 
1.10647 0.967646 0.0 
1.05244 1.00326 0.0 
1.06395 0.964158 0.0 
1.11494 0.990023 0.0 
1.07319 0.990478 0.0 
1.06263 1.00387 0.0 
1.04581 0.996199 0.0 
1.06042 1.00377 0.0 
1.05358 1.00141 0.0 
1.15936 0.981644 0.0 
1.01757 0.992126 0.0 
1.12719 0.977909 0.0 
1.02746 0.993778 0.0 
1.06526 1.00407 0.0 
1.1642 0.978247 0.0 
1.01995 0.993793 0.0 
1.05836 1.00408 0.0 
1.1202 0.972893 0.0 
1.12657 0.970149 0.0 
1.15936 0.980905 0.0 
1.02242 0.991611 0.0 
1.0238 0.997258 0.0 
1.11993 0.987938 0.0 
1.04627 1.00312 0.0 
1.02838 0.990774 0.0 
1.0267 0.995335 0.0 
1.14359 0.977929 0.0 
1.11377 0.970889 0.0 
1.03343 0.991319 0.0 
1.11502 0.985989 0.0 
1.14504 0.977324 0.0 
1.0377 0.990801 0.0 
1.02638 0.99395 0.0 
1.01966 0.991857 0.0 
1.11193 0.966168 0.0 
1.02293 0.9967 0.0 
1.08555 0.995679 0.0 
1.1405 0.977741 0.0 
1.02326 0.994557 0.0 
1.04264 0.986482 0.0 
1.02655 0.996895 0.0 
1.05098 1.00351 0.0 
1.02441 0.993393 0.0 
1.04139 0.991987 0.0 
1.11532 0.952599 0.0 
1.0537 0.980457 0.0 
1.03643 0.990275 0.0 
1.02458 0.989943 0.0 
1.03472 0.992357 0.0 
1.03513 0.99086 0.0 
1.04825 1.00133 0.0 
1.03527 0.992938 0.0 
1.05007 1.00263 0.0 
1.03106 0.992736 0.0 
1.02333 0.993021 0.0 
1.0516 1.00126 0.0 
1.12292 0.98062 0.0 
1.04545 0.990141 0.0 
1.04059 0.998166 0.0 
1.03234 0.994159 0.0 
1.04657 1.00147 0.0 
1.16585 0.976604 0.0 
1.13318 0.976852 0.0 
1.04744 0.993633 0.0 
1.06323 0.999301 0.0 
1.04486 0.971866 0.0 
1.03391 0.993532 0.0 
1.02535 0.998478 0.0 
1.05159 1.00208 0.0 
1.03919 0.996831 0.0 
1.03804 0.993379 0.0 
1.03314 0.98949 0.0 
1.04565 0.994138 0.0 
1.02967 0.986444 0.0 
1.11378 0.968097 0.0 
1.09099 0.991336 0.0 
1.04815 0.998511 0.0 
1.06221 1.00138 0.0 
1.03197 0.993477 0.0 
1.06406 0.995609 0.0 
1.03615 0.999172 0.0 
1.03084 0.986917 0.0 
1.03445 0.994114 0.0 
1.07204 1.00384 0.0 
1.16298 0.979651 0.0 
1.04586 0.986981 0.0 
1.0361 0.989669 0.0 
1.03425 0.988121 0.0 
1.03388 0.990089 0.0 
1.08911 0.99884 0.0 
1.03691 0.992902 0.0 
1.0535 0.990866 0.0 
1.04565 1.0021 0.0 
1.152 0.976498 0.0 
1.03896 0.992416 0.0 
1.05479 0.996256 0.0 
1.03051 0.993413 0.0 
1.03009 0.991011 0.0 
1.08695 0.951967 0.0 
1.02806 0.99311 0.0 
1.0313 0.991291 0.0 
1.03077 0.990289 0.0 
1.05894 1.00227 0.0 
1.03244 0.995275 0.0 
1.07608 1.00487 0.0 
1.0299 0.994982 0.0 
1.06094 1.00208 0.0 
1.08227 0.976814 0.0 
1.05743 0.998059 0.0 
1.13048 0.966726 0.0 
1.02913 0.994293 0.0 
1.04761 0.996545 0.0 
1.07184 0.98006 0.0 
1.03495 0.988753 0.0 
1.03067 0.994124 0.0 
1.03128 0.991872 0.0 
1.03125 0.994847 0.0 
1.02931 0.993038 0.0 
1.02946 0.991667 0.0 
1.05634 1.00393 0.0 
1.06925 1.00398 0.0 
1.02846 0.993613 0.0 
1.05504 0.995509 0.0 
1.02226 0.993051 0.0 
1.08764 0.991125 0.0 
1.02575 0.993382 0.0 
1.07576 0.982062 0.0 
1.12745 0.973643 0.0 
1.03289 0.99234 0.0 
1.02999 0.988392 0.0 
1.07403 1.00185 0.0 
1.06408 0.998238 0.0 
1.07578 0.996006 0.0 
1.07587 0.997465 0.0 
1.07668 1.0016 0.0 
1.15997 0.980425 0.0 
1.02138 0.995532 0.0 
1.12144 0.981404 0.0 
1.05291 0.997636 0.0 
1.05138 1.00288 0.0 
1.06754 0.999906 0.0 
1.07757 1.00474 0.0 
1.07074 0.996155 0.0 
1.07526 1.00026 0.0 
1.02302 0.993724 0.0 
1.0771 0.990421 0.0 
1.02708 0.997586 0.0 
1.16043 0.974412 0.0 
1.07235 1.00059 0.0 
1.04437 0.997699 0.0 
1.07757 0.986847 0.0 
1.04772 1.0008 0.0 
1.03295 0.990724 0.0 
1.03774 0.999104 0.0 
1.04126 1.00219 0.0 
1.06019 0.997768 0.0 
1.01831 0.993827 0.0 
1.07308 1.00498 0.0 
1.03407 0.991838 0.0 
1.03095 0.998792 0.0 
1.0223 0.988231 0.0 
1.02409 0.996426 0.0 
1.02906 0.987771 0.0 
1.06921 1.00444 0.0 
1.03962 1.00067 0.0 
1.0252 0.987792 0.0 
1.05675 1.00001 0.0 
1.05087 0.997234 0.0 
1.02192 0.994324 0.0 
1.02678 0.98978 0.0 
1.05729 1.004 0.0 
1.05069 0.995613 0.0 
1.03872 0.998312 0.0 
1.06357 1.0034 0.0 
1.13045 0.978136 0.0 
1.04507 1.0026 0.0 
1.04872 0.994382 0.0 
1.05997 1.0014 0.0 
1.05274 0.996726 0.0 
1.02774 0.998219 0.0 
1.06729 1.00431 0.0 
1.01934 0.990336 0.0 
1.06761 1.00222 0.0 
1.03944 0.992954 0.0 
1.02738 0.992106 0.0 
1.07827 0.997522 0.0 
1.04656 0.990679 0.0 
1.13351 0.977345 0.0 
1.04162 0.994792 0.0 
1.02045 0.994502 0.0 
1.0333 0.992897 0.0 
1.06683 0.985938 0.0 
1.02093 0.993793 0.0 
1.12268 0.976941 0.0 
1.06463 1.00364 0.0 
1.02134 0.992119 0.0 
1.04778 0.995724 0.0 
1.01918 0.995054 0.0 
1.07387 1.00103 0.0 
1.05587 0.994796 0.0 
1.06646 0.997543 0.0 
1.0568 1.00322 0.0 
1.0246 0.997861 0.0 
1.06663 0.995294 0.0 
1.02063 0.992671 0.0 
1.03965 0.994353 0.0 
1.07678 1.00418 0.0 
1.03139 0.985437 0.0 
1.05822 1.00371 0.0 
1.05501 0.992589 0.0 
1.0433 1.00285 0.0 
1.04953 0.997883 0.0 
1.10943 0.975537 0.0 
1.02728 0.986327 0.0 
1.12024 0.979786 0.0 
1.02425 0.992589 0.0 
1.04167 0.988102 0.0 
1.12677 0.984633 0.0 
1.02518 0.994056 0.0 
1.07338 0.996281 0.0 
1.02344 0.987121 0.0 
1.1314 0.9772 0.0 
1.06309 1.00196 0.0 
1.15972 0.979955 0.0 
1.03434 1.00195 0.0 
1.05746 1.00347 0.0 
1.07357 1.00274 0.0 
1.01796 0.995251 0.0 
1.06566 1.00459 0.0 
1.02272 0.99235 0.0 
1.05886 1.00331 0.0 
1.03829 0.985255 0.0 
1.04346 0.989596 0.0 
1.1669 0.976951 0.0 
1.06315 0.997459 0.0 
1.02961 0.993696 0.0 
1.07558 1.0049 0.0 
1.12848 0.971396 0.0 
1.05921 0.998507 0.0 
1.06703 0.990163 0.0 
1.07874 0.99311 0.0 
1.06127 1.00429 0.0 
1.03366 0.985747 0.0 
1.0637 0.994749 0.0 
1.10029 0.917105 0.0 
1.08125 0.980613 0.0 
1.14813 0.974622 0.0 
1.04601 0.99883 0.0 
1.12244 0.979885 0.0 
1.06686 0.999133 0.0 
1.0767 1.00074 0.0 
1.07773 0.996581 0.0 
1.07707 1.00479 0.0 
1.0334 0.98778 0.0 
1.02043 0.995337 0.0 
1.05268 0.995836 0.0 
1.04518 0.995589 0.0 
1.15817 0.981311 0.0 
1.02423 0.988701 0.0 
1.02685 0.988367 0.0 
1.02891 0.992377 0.0 
1.03772 0.988286 0.0 
1.06794 0.996577 0.0 
1.05119 0.988813 0.0 
1.03801 0.993991 0.0 
1.04398 0.991365 0.0 
1.04401 0.992269 0.0 
1.01959 0.995846 0.0 
1.05402 0.998513 0.0 
1.13053 0.977439 0.0 
1.02068 0.996109 0.0 
1.03205 0.983103 0.0 
1.11102 0.989937 0.0 
1.04963 0.987514 0.0 
1.05869 0.987526 0.0 
1.02449 0.986199 0.0 
1.15782 0.982398 0.0 
1.16392 0.977485 0.0 
1.06476 1.00453 0.0 
1.03974 0.986073 0.0 
1.07648 0.982894 0.0 
1.04649 0.99726 0.0 
1.05475 0.988172 0.0 
1.03779 0.988934 0.0 
1.07003 0.999008 0.0 
1.08416 0.996553 0.0 
[...]
<PointData>
  <DataArray type = "Float64" Name="Vitesse" NumberOfComponents="3" format="ascii">
0.586917 -0.0455548 0.0 
0.958983 0.0144369 0.0 
0.988767 -0.234159 0.0 
0.844409 -0.260733 0.0 
0.30908 -0.00879407 0.0 
1.00742 -0.18725 0.0 
0.972401 -0.222854 0.0 
0 0 0.0 
0 0 0.0 
0.0323328 -0.0120167 0.0 
0 0 0.0 
0.772183 -0.179386 0.0 
1.04064 -0.200357 0.0 
0.657007 -0.146108 0.0 
0 0 0.0 
0.321733 0.0115908 0.0 
0.859258 -0.127833 0.0 
0.862559 -0.118615 0.0 
0.848578 -0.109376 0.0 
1.00286 -0.206475 0.0 
1.01502 -0.0266813 0.0 
1.00264 -0.0474022 0.0 
0.963026 -0.219968 0.0 
0.829115 -0.249121 0.0 
0.314695 -0.162031 0.0 
0.732286 -0.25562 0.0 
0.617932 -0.13094 0.0 
0.846168 -0.254647 0.0 
0.927385 -0.225979 0.0 
0.108874 -0.0409761 0.0 
0.465962 -0.225935 0.0 
0.817373 -0.107366 0.0 
0.52376 -0.0481314 0.0 
0.875705 -0.0365377 0.0 
0.755979 -0.0795194 0.0 
0.400166 -0.0527322 0.0 
0.896738 -0.043589 0.0 
0.798563 -0.092832 0.0 
0.232294 0.00574859 0.0 
0.885874 -0.0417913 0.0 
0.568905 -0.0752733 0.0 
0.876276 -0.0396408 0.0 
0.506088 -0.0668959 0.0 
0.196246 -0.090229 0.0 
0.89685 -0.0433663 0.0 
0.584801 -0.0485937 0.0 
0.260611 -0.00296616 0.0 
0.87722 -0.110117 0.0 
0.550462 -0.0657258 0.0 
0.671614 -0.26678 0.0 
1.04771 -0.199751 0.0 
0.0239848 0.000868793 0.0 
0.781983 -0.0292585 0.0 
0.324473 0.0113382 0.0 
0.728471 -0.0221376 0.0 
0.909955 -0.0462453 0.0 
0.27478 -0.0551019 0.0 
0.922512 -0.0625457 0.0 
0.881092 -0.131172 0.0 
0.567094 -0.0602315 0.0 
0.875048 -0.0445792 0.0 
0.647543 -0.0308337 0.0 
0.0850339 0.0521124 0.0 
0.0548655 -0.0081803 0.0 
0 0 0.0 
0.29959 -0.00917873 0.0 
0.703777 -0.0256488 0.0 
0.434723 0.0081217 0.0 
0.0074704 0.000465642 0.0 
0.290979 0.00667732 0.0 
0.265088 -0.00156145 0.0 
0.847258 -0.23664 0.0 
0.142021 0.00353275 0.0 
0.413203 0.00912233 0.0 
0.765236 -0.111804 0.0 
0.88254 -0.0438907 0.0 
0.0968732 -0.000125271 0.0 
0.0116035 0.000539268 0.0 
0.350703 -0.045241 0.0 
0.905687 -0.0454979 0.0 
0.833325 -0.0396724 0.0 
0.870334 -0.0357335 0.0 
0.634007 -0.00481823 0.0 
0.771887 -0.0195744 0.0 
0.900153 -0.0500687 0.0 
0.830057 -0.104579 0.0 
0.109144 -0.0069713 0.0 
0.880326 -0.0390115 0.0 
0.514517 -0.0570332 0.0 
0.862879 -0.107862 0.0 
0.569115 -0.00835628 0.0 
0.367201 -0.0550868 0.0 
0.603349 -0.156677 0.0 
0.0159158 0.00136597 0.0 
0.856596 -0.0372266 0.0 
0.731907 -0.0143764 0.0 
0 0 0.0 
0.117686 0.000421822 0.0 
0.952279 -0.236451 0.0 
0.30832 -0.0186272 0.0 
1.01967 -0.0184804 0.0 
0.424392 -0.0270373 0.0 
0.0406732 -0.00298784 0.0 
0.512615 0.00461131 0.0 
0.869534 -0.103463 0.0 
0.56772 -0.041544 0.0 
0.894668 -0.236466 0.0 
0.731931 -0.0222766 0.0 
0.615022 -0.0663465 0.0 
0.750345 -0.0185626 0.0 
0.787277 -0.0781764 0.0 
0.0319793 0.000306674 0.0 
0.88587 -0.0383686 0.0 
0.817583 -0.0267842 0.0 
0.0191212 0.00140244 0.0 
0.770483 -0.094095 0.0 
0.369825 -0.182829 0.0 
0.804473 -0.262846 0.0 
0.76682 -0.0247255 0.0 
0.904252 -0.0434598 0.0 
0.0364525 0.00277169 0.0 
0.240251 -0.035879 0.0 
0.858398 -0.0342912 0.0 
0.656161 -0.0115957 0.0 
0.592776 -0.0692292 0.0 
0.302404 -0.0117706 0.0 
0.634655 -0.0567092 0.0 
0.856758 -0.0327388 0.0 
0.654717 -0.0789887 0.0 
0.559391 0.00139179 0.0 
0.859122 -0.0978635 0.0 
0.149886 -0.0715943 0.0 
0 0 0.0 
0.925415 -0.052362 0.0 
0.787696 -0.0246997 0.0 
0.703085 -0.0130308 0.0 
1.0068 -0.227442 0.0 
0.0074043 0.00599504 0.0 
0.967121 -0.240952 0.0 
0.472462 0.00659496 0.0 
0.425134 0.00852844 0.0 
0.865907 -0.034236 0.0 
0.462913 -0.0209089 0.0 
0.0335764 -0.00127144 0.0 
0.787751 -0.214179 0.0 
0.592072 -0.00334093 0.0 
0.898442 -0.237958 0.0 
0.683119 -0.0822113 0.0 
0.807887 -0.0301499 0.0 
0.899344 -0.046686 0.0 
0.809449 -0.0248199 0.0 
0.833131 -0.0362612 0.0 
0.870647 -0.0484879 0.0 
0.410197 0.00935781 0.0 
0.00629506 -0.000586495 0.0 
0.0853822 -0.00671184 0.0 
0.00843123 0.000667826 0.0 
0.805861 -0.0942691 0.0 
0.56732 -0.000254368 0.0 
0.533845 0.00259495 0.0 
0.680374 -0.01306 0.0 
0.61059 -0.0629605 0.0 
0.621238 -0.080402 0.0 
0.681749 -0.0115728 0.0 
0.940604 -0.190278 0.0 
0.0078671 0.000606177 0.0 
0.918922 -0.0903017 0.0 
0.141043 -0.070382 0.0 
0.566502 -0.045738 0.0 
0.00785519 0.000500765 0.0 
0.353154 0.00344845 0.0 
0.0075824 0.000512947 0.0 
0.0641142 0.00307294 0.0 
-0.00696091 0.00598901 0.0 
0.865481 -0.0447965 0.0 
0.807229 -0.262829 0.0 
0.636958 -0.00448391 0.0 
0.00678038 0.000428708 0.0 
0.150812 -0.0257273 0.0 
0.707552 -0.0156142 0.0 
0 0 0.0 
0.929515 -0.243497 0.0 
0.996102 -0.232381 0.0 
0.0215558 0.00675005 0.0 
0.842483 -0.0326076 0.0 
0.299015 0.0116559 0.0 
0.0990715 -0.0545898 0.0 
0 0 0.0 
0.83334 -0.0286002 0.0 
0.49172 0.00584046 0.0 
0.469488 -0.0201676 0.0 
0.939044 -0.221352 0.0 
0.7677 -0.0196097 0.0 
0.438727 -0.177708 0.0 
0.499415 -0.0257165 0.0 
0.766201 -0.0218297 0.0 
0.630034 -0.00381321 0.0 
0.857253 -0.0390414 0.0 
0.962817 -0.201 0.0 
0.361062 0.0107162 0.0 
0.232897 -0.0294634 0.0 
0.57017 -0.0505656 0.0 
0.596239 -0.00179808 0.0 
0.877817 -0.0442683 0.0 
0.332687 0.0113787 0.0 
0 0 0.0 
0.697161 -0.0110079 0.0 
0.673856 -0.0142342 0.0 
0.997507 -0.16221 0.0 
0.899908 -0.0658809 0.0 
0.799738 -0.0253827 0.0 
0.891656 -0.040779 0.0 
0.693549 -0.0116376 0.0 
0.78026 -0.0219725 0.0 
0.0605162 0.00350191 0.0 
0.648533 -0.00756348 0.0 
0.0203481 0.0014613 0.0 
0.693288 -0.0103178 0.0 
0.73896 -0.0165834 0.0 
0.0675234 0.00333439 0.0 
0.665058 -0.259258 0.0 
0.75014 -0.026639 0.0 
0.221403 0.00825706 0.0 
0.569469 -0.000251882 0.0 
0.0523509 0.00333636 0.0 
0.253566 -0.0382864 0.0 
0.833008 -0.182559 0.0 
0.52947 -0.00737896 0.0 
0.146534 0.000323996 0.0 
0.91969 -0.0672432 0.0 
0.61158 -0.00392557 0.0 
0.180928 0.0108257 0.0 
0.0389644 0.00230973 0.0 
0.319779 0.00785348 0.0 
0.598269 -0.00509946 0.0 
0.851389 -0.0320705 0.0 
0.502683 -0.00381014 0.0 
0.922815 -0.0491049 0.0 
0.960199 -0.212427 0.0 
0.398809 -0.0658632 0.0 
0.19892 0.00545231 0.0 
0.0688531 0.0017366 0.0 
0.628905 -0.004705 0.0 
0.332639 -0.00965604 0.0 
0.15016 0.0087174 0.0 
0.915081 -0.046219 0.0 
0.560867 -0.000423926 0.0 
0.0129083 0.000169645 0.0 
0.0784591 -0.0177167 0.0 
0.855247 -0.0429776 0.0 
0.826901 -0.0293603 0.0 
0.882432 -0.0386703 0.0 
0.824357 -0.0278116 0.0 
0.0980289 -0.0193865 0.0 
0.640328 -0.00786456 0.0 
0.666153 -0.0262033 0.0 
0.0282103 0.00212375 0.0 
0.431976 -0.0175956 0.0 
0.661204 -0.0111578 0.0 
0.325261 -0.00172936 0.0 
0.644271 -0.00555377 0.0 
0.808767 -0.0245861 0.0 
0.946052 -0.121833 0.0 
0.688446 -0.00950125 0.0 
0.784787 -0.0213486 0.0 
0.837077 -0.0290919 0.0 
0.0409122 0.00175 0.0 
0.470199 0.00563334 0.0 
0 0 0.0 
0.50943 0.00443474 0.0 
0.0475618 0.00177939 0.0 
0.877992 -0.121294 0.0 
0.214724 0.000840372 0.0 
1.03809 -0.20952 0.0 
0.577992 0.000165444 0.0 
0.324897 0.00328844 0.0 
0.870136 -0.0926689 0.0 
0.863506 -0.0352091 0.0 
0.582937 -0.00058908 0.0 
0.750758 -0.0169299 0.0 
0.514691 0.00377744 0.0 
0.683728 -0.009326 0.0 
0.777668 -0.0201082 0.0 
0 0 0.0 
0.0103492 0.000442205 0.0 
0.64345 -0.00508895 0.0 
0.371735 -0.00424458 0.0 
0.747803 -0.0183709 0.0 
0.433471 -0.0613149 0.0 
0.686088 -0.00919919 0.0 
0.835261 -0.095154 0.0 
0.940871 -0.243648 0.0 
0.707756 -0.0125235 0.0 
0.897754 -0.0411393 0.0 
0.0504746 -0.00118033 0.0 
0.193829 -0.0017713 0.0 
0.263915 -0.0167847 0.0 
0.196792 -0.0112604 0.0 
0.0542657 -0.00275787 0.0 
0.0428801 0.00238933 0.0 
0.503341 0.00422628 0.0 
0.62964 -0.248309 0.0 
0.245488 0.00241205 0.0 
0.0156923 0.00107515 0.0 
0.117086 -0.000617941 0.0 
0 0 0.0 
0.277327 -0.0120723 0.0 
0.0934141 -0.00386062 0.0 
0.681136 -0.010048 0.0 
0.543234 -0.0508488 0.0 
0.265003 0.0117392 0.0 
0.494983 -0.0473862 0.0 
0.087428 -0.00164899 0.0 
0.251564 0.00657083 0.0 
0.699172 -0.0754459 0.0 
0.081266 0.00428741 0.0 
0.802256 -0.0241365 0.0 
0.157129 0.00841419 0.0 
0.0147003 0.00130365 0.0 
0.225245 -0.000818152 0.0 
0.725015 -0.0200022 0.0 
0 0 0.0 
0.732231 -0.0155244 0.0 
0.166974 0.00996611 0.0 
0.93354 -0.055126 0.0 
0.387804 0.00997793 0.0 
0.912176 -0.0451275 0.0 
0.00427025 0.000259856 0.0 
0.0726484 0.00513108 0.0 
0.92674 -0.0503106 0.0 
0.120751 0.00268806 0.0 
0.273297 0.00285972 0.0 
0.632789 -0.00557463 0.0 
0.881734 -0.0378546 0.0 
0 0 0.0 
0.379603 -0.00111562 0.0 
0.21094 0.00890688 0.0 
0.0173305 0.000890869 0.0 
0.797095 -0.222345 0.0 
0.0114154 0.000933177 0.0 
0.471622 -0.00460214 0.0 
0.0678131 0.00215944 0.0 
0.301254 0.000674008 0.0 
0.20805 0.0111516 0.0 
0.00473014 0.000259813 0.0 
0.917032 -0.0536637 0.0 
0.0448508 0.000801675 0.0 
0.620928 -0.00791205 0.0 
0.767682 -0.0189711 0.0 
0.186071 -0.0132061 0.0 
0.716875 -0.0237579 0.0 
0.796237 -0.166944 0.0 
0.47173 0.000813195 0.0 
0.628842 -0.00642517 0.0 
0.664888 -0.00830201 0.0 
0.788236 -0.0650229 0.0 
0.696519 -0.0128809 0.0 
0.828701 -0.25864 0.0 
0.0133776 0.000717713 0.0 
0.82415 -0.0307491 0.0 
0.381281 0.00102053 0.0 
0.579113 -0.00290689 0.0 
0.0723617 -0.00193111 0.0 
0.414293 -0.00754466 0.0 
0.221753 -0.00468271 0.0 
0.0149677 0.000926968 0.0 
0.237513 0.0117119 0.0 
0.339921 -0.0126713 0.0 
0.795338 -0.0266433 0.0 
0.51453 -0.000283777 0.0 
0.00674171 -0.000483156 0.0 
0.923518 -0.0505063 0.0 
0.00642184 0.000428472 0.0 
0.557858 -0.0174692 0.0 
0 0 0.0 
0.235433 0.00453148 0.0 
0.866516 -0.212017 0.0 
0.93018 -0.0519177 0.0 
0.715073 -0.249357 0.0 
0.763353 -0.0188823 0.0 
0.846951 -0.0372818 0.0 
0 0 0.0 
0.629921 -0.00405935 0.0 
0.260506 -0.0137862 0.0 
0.936788 -0.0558501 0.0 
0.83663 -0.211314 0.0 
0.0516055 0.00151677 0.0 
0.0654712 0.00369659 0.0 
0 0 0.0 
0.0103605 0.00067325 0.0 
0.0314071 -0.000528802 0.0 
0.568173 -0.00310819 0.0 
0 0 0.0 
0.795101 -0.0247194 0.0 
0.0152286 0.000857265 0.0 
0.906829 -0.0480674 0.0 
0.786019 -0.0293684 0.0 
0.225512 -0.0411602 0.0 
0.234765 -0.00308333 0.0 
0.627489 -0.00388122 0.0 
0 0 0.0 
0.986666 -0.231805 0.0 
0.188983 0.00080265 0.0 
0.621578 -0.0412054 0.0 
0.394054 -0.0351359 0.0 
0 0 0.0 
0.915566 -0.0480434 0.0 
0.383691 -0.0129334 0.0 
0.991526 -0.0949339 0.0 
0.840741 -0.111495 0.0 
0.69356 -0.0694508 0.0 
0.180137 0.00623118 0.0 
0.705439 -0.25938 0.0 
0.148797 -0.00144402 0.0 
0.0767008 -0.00398283 0.0 
0.228814 -0.0162009 0.0 
0 0 0.0 
0.893057 -0.0409317 0.0 
0.533759 0.00167825 0.0 
0.358589 -0.00171208 0.0 
0.39899 0.00210092 0.0 
0.00445031 0.0151032 0.0 
0.920042 -0.0486115 0.0 
0.912976 -0.0455291 0.0 
0.73607 -0.0148267 0.0 
0.861486 -0.0365998 0.0 
0.265809 -0.00866179 0.0 
0.774381 -0.036561 0.0 
0.551366 -0.00156721 0.0 
0.694925 -0.0187312 0.0 
0.639857 -0.0131778 0.0 
0.478657 0.00466986 0.0 
0.1946 0.00292455 0.0 
0.831624 -0.225593 0.0 
0.43924 0.00734973 0.0 
0.9279 -0.0543365 0.0 
0.267807 -0.112447 0.0 
0.824996 -0.042373 0.0 
0.780322 -0.0489885 0.0 
0.937031 -0.0559799 0.0 
-0.0351589 0.0164922 0.0 
0.199461 -0.0264213 0.0 
0 0 0.0 
0.894169 -0.0454509 0.0 
0.817752 -0.0935221 0.0 
0.278699 0.00515504 0.0 
0.77885 -0.0422575 0.0 
0.84248 -0.033076 0.0 
0.147833 -0.00319691 0.0 
0.202912 -0.0233628 0.0 
0.118965 0.00445439 0.0 
0.709457 -0.220922 0.0 
0.896642 -0.0491707 0.0 
0.802332 -0.0396294 0.0 
0 0 0.0 
0.0853632 0.00412858 0.0 
0.826624 -0.0381334 0.0 
0.729559 -0.0494015 0.0 
0.812201 -0.0294847 0.0 
0.919244 -0.193779 0.0 
0.603875 -0.259744 0.0 
0.878729 -0.0534357 0.0 
0.819873 -0.0335336 0.0 
0.0311982 -0.00365769 0.0 
0.797532 -0.034453 0.0 
0.885646 -0.0487697 0.0 
0.805382 -0.0447344 0.0 
0.868762 -0.03979 0.0 
0.754312 -0.045918 0.0 
0.862074 -0.083891 0.0 
0 0 0.0 
0.745091 -0.0334288 0.0 
0.491117 0.00338573 0.0 
0.765747 -0.0311778 0.0 
0.900253 -0.101991 0.0 
0 0 0.0 
0.0525062 0.00307548 0.0 
0.750847 -0.0391076 0.0 
0.0989672 0.00420586 0.0 
0.257648 0.00986214 0.0 
-0.0186092 0.0147346 0.0 
0.718475 -0.0419139 0.0 
0.50334 -0.00208535 0.0 
0.323412 0.00671602 0.0 
0.012609 -0.00027775 0.0 
0.00805602 0.000425639 0.0 
0.708054 -0.0529207 0.0 
0.890987 -0.053504 0.0 
0.0562064 0.00401682 0.0 
0.0118108 -0.00315275 0.0 
0.100875 0.00770903 0.0 
0.183636 -0.00749717 0.0 
0.352999 0.0049152 0.0 
0.0222866 0.00147865 0.0 
0.0714462 0.00420022 0.0 
0.72082 -0.0353792 0.0 
0.0297407 0.00111976 0.0 
0.505429 0.0013071 0.0 
0.438384 -0.000983454 0.0 
0 0 0.0 
0.536601 -0.00303021 0.0 
0 0 0.0 
0.154241 0.00986322 0.0 
0.207649 0.00694622 0.0 
0.0344791 0.00236139 0.0 
0.4377 0.00769942 0.0 
0.0826938 0.00571946 0.0 
0.138896 0.00710059 0.0 
0.0330674 -0.00189325 0.0 
0.0208382 -0.000615318 0.0 
0.639277 -0.237632 0.0 
0.71412 -0.0182263 0.0 
0.926545 -0.0827523 0.0 
0.482053 -0.0110432 0.0 
0 0 0.0 
0.364874 0.00962287 0.0 
0.92715 -0.0619403 0.0 
0.713261 -0.0764308 0.0 
0.0291989 0.00281327 0.0 
0.502267 0.00359071 0.0 
0.0935708 -0.0165623 0.0 
0.645281 -0.0461215 0.0 
0.228178 0.0110482 0.0 
0.0714037 0.00578173 0.0 
0.724076 -0.0136205 0.0 
0.905405 -0.0561026 0.0 
0.916191 -0.0646017 0.0 
0.283332 0.0107664 0.0 
0.107516 -0.0622154 0.0 
0.0122984 0.000959385 0.0 
0.0287177 0.00137064 0.0 
0.756303 -0.0215429 0.0 
0.115436 -0.0178473 0.0 
0.120568 0.00808603 0.0 
0.200802 0.0161189 0.0 
0.292871 0.0112156 0.0 
-0.0251311 0.00640906 0.0 
0.846755 -0.0311646 0.0 
0.508059 -0.00879013 0.0 
0.292399 -0.00617938 0.0 
0.748262 -0.0217767 0.0 
0.235284 0.0106669 0.0 
0.0558674 -2.37117e-05 0.0 
0.367193 -0.006269 0.0 
0.0265719 -0.00640604 0.0 
0.135898 -0.00829921 0.0 
0.388062 -0.0173477 0.0 
0.876508 -0.180414 0.0 
0.921094 -0.100798 0.0 
0.450603 0.00360094 0.0 
0.0666812 -0.0122436 0.0 
0.33425 -0.016082 0.0 
0 0 0.0 
0.811924 -0.106421 0.0 
0.0637337 0.00449273 0.0 
0.045204 0.00398325 0.0 
0.0065962 -0.000157201 0.0 
0.678529 -0.0491423 0.0 
0.568404 -0.00398461 0.0 
0.18974 -0.000239626 0.0 
0.121397 0.00838038 0.0 
0.652298 -0.0513991 0.0 
0.0476556 0.00398001 0.0 
0.23786 0.0105265 0.0 
0.191487 0.0101889 0.0 
0.0910977 0.00222128 0.0 
0.0218807 0.00189614 0.0 
0.685468 -0.0557778 0.0 
0.15807 -0.0112227 0.0 
0.856268 -0.249605 0.0 
0.947605 -0.228162 0.0 
0.501729 -0.208991 0.0 
0.0642371 0.00515263 0.0 
0.642407 -0.0116049 0.0 
0.480002 0.00406147 0.0 
0.549666 -0.00532302 0.0 
0.112198 -0.0195839 0.0 
0.677848 -0.021091 0.0 
0.0891954 -0.0117549 0.0 
0.0174784 0.0014454 0.0 
0.37333 -0.0214564 0.0 
0.526932 0.00093577 0.0 
0.491083 -0.223942 0.0 
0 0 0.0 
0.133408 0.00922312 0.0 
0.0195669 0.00182861 0.0 
0.298211 0.0104968 0.0 
0.343811 -0.00743139 0.0 
0.645353 -0.0161336 0.0 
0.0276566 0.00259259 0.0 
0.456169 -0.0183815 0.0 
0.835816 -0.242436 0.0 
0.150198 -0.0171759 0.0 
0.013241 -0.00109461 0.0 
0 0 0.0 
0.00904936 0.000707723 0.0 
0.610968 -0.0465726 0.0 
0.808583 -0.0248628 0.0 
0.0980452 0.00688119 0.0 
0.0316759 0.00140305 0.0 
0 0 0.0 
0.308294 0.00522167 0.0 
0.0860395 0.00670223 0.0 
0 0 0.0 
0.53789 -0.0220199 0.0 
0.336574 0.00857045 0.0 
0.0234154 0.00238081 0.0 
0.185038 -0.033619 0.0 
0.255775 0.0118949 0.0 
0.915101 -0.0604677 0.0 
0.732768 -0.0565691 0.0 
0 0 0.0 
0.429347 0.00697905 0.0 
0.832686 -0.0855895 0.0 
0.596918 -0.0359363 0.0 
0.289913 0.00064384 0.0 
0 0 0.0 
0.633384 -0.0714707 0.0 
0.0315249 0.00248857 0.0 
0.562367 0.00130136 0.0 
0.0593907 0.0025425 0.0 
0.830588 -0.033229 0.0 
0.0847434 0.00531913 0.0 
0.25536 -0.0288534 0.0 
0.381385 0.00999507 0.0 
0.845298 -0.10184 0.0 
0.154779 0.00151682 0.0 
0.90861 -0.245589 0.0 
0.107449 0.00736971 0.0 
0.0774363 0.000101845 0.0 
0.0589581 0.00506296 0.0 
0.137186 0.00893966 0.0 
0.90965 -0.0663096 0.0 
0.238168 0.00754787 0.0 
0.0367778 0.0033991 0.0 
0.314087 0.00962359 0.0 
0.249232 0.000607709 0.0 
0.883951 -0.0662647 0.0 
0.029451 0.00294573 0.0 
0.406548 0.00948917 0.0 
0.360431 0.00905111 0.0 
0.0349255 0.000649318 0.0 
0.0230228 0.00121771 0.0 
0.013562 -0.00342712 0.0 
0.403793 -0.0074538 0.0 
0.159637 -0.00841639 0.0 
0.0647138 0.00559127 0.0 
0.0322883 0.00129035 0.0 
0.0339995 0.00276078 0.0 
0.594467 -0.0117285 0.0 
0 0 0.0 
0.804064 -0.120683 0.0 
0.0974939 0.00729547 0.0 
0.146249 0.00968813 0.0 
0.732219 -0.0144632 0.0 
0.14844 0.00887168 0.0 
0.769087 -0.199505 0.0 
0.0636627 0.00559568 0.0 
0.170286 0.00963529 0.0 
0.749919 -0.0193428 0.0 
0.0176118 0.00164847 0.0 
0.0551741 0.00462295 0.0 
0.908665 -0.0609955 0.0 
0 0 0.0 
0.0441033 0.00355673 0.0 
0.461311 0.00417801 0.0 
0.453025 0.00741048 0.0 
0.0269474 0.00256393 0.0 
0.318727 -0.00422548 0.0 
0.0434114 0.00303239 0.0 
0.745536 -0.102617 0.0 
0.168278 0.00212021 0.0 
0.221192 0.0110391 0.0 
0.718049 -0.0151177 0.0 
0.73547 -0.0283892 0.0 
0 0 0.0 
0.0995052 0.00374529 0.0 
0.227715 -0.00944007 0.0 
0.41755 -0.165395 0.0 
0.235211 -0.00781334 0.0 
0.0450222 -0.00865452 0.0 
0.177464 0.010156 0.0 
0.0133094 -0.00327774 0.0 
0.466947 -0.0454116 0.0 
0.33177 0.0112954 0.0 
0.274464 0.00782216 0.0 
0.0151781 0.000421102 0.0 
0.937441 -0.0576338 0.0 
0.609129 -0.0165502 0.0 
0 0 0.0 
0 0 0.0 
0 0 0.0 
0 0 0.0 
0 0 0.0 
0.193614 0.0097882 0.0 
0.266678 0.00928318 0.0 
0.00636803 0.000256259 0.0 
-0.0403941 0.00622695 0.0 
0.0182545 -0.000954138 0.0 
0 0 0.0 
0.112069 0.00677203 0.0 
0.0279513 -0.0062823 0.0 
0 0 0.0 
0.0232899 0.00223998 0.0 
0.397908 0.0074118 0.0 
0.491155 -0.0158516 0.0 
0.03279 0.00215495 0.0 
0.0197046 0.00183521 0.0 
0.0573931 0.00501258 0.0 
0.640214 -0.196806 0.0 
0.179331 -0.00225392 0.0 
0.405083 -0.199656 0.0 
0.185918 -0.00490846 0.0 
0.94092 -0.24734 0.0 
0.00592024 1.51316e-06 0.0 
0.966548 -0.179935 0.0 
0 0 0.0 
0.00988602 -0.0003605 0.0 
0 0 0.0 
0.117144 0.0062864 0.0 
0.0831011 0.00254628 0.0 
0.55057 -0.0129213 0.0 
0.912355 -0.0570298 0.0 
0 0 0.0 
0.0401827 0.00226059 0.0 
0.370243 -0.159322 0.0 
0.196755 0.00465105 0.0 
0.701146 -0.105833 0.0 
0.318032 -0.0300786 0.0 
0.262525 -0.00616729 0.0 
0.667954 -0.101437 0.0 
0 0 0.0 
0.623875 -0.0210008 0.0 
0.95397 -0.177241 0.0 
0.698916 -0.0462955 0.0 
0 0 0.0 
0.0940469 0.00734246 0.0 
0 0 0.0 
0.0418371 0.00331526 0.0 
0.294923 -0.00166251 0.0 
0.0124741 8.00674e-06 0.0 
0.343876 0.0109007 0.0 
0.896398 -0.148967 0.0 
0.776107 -0.136969 0.0 
0.34986 -0.0379665 0.0 
0.020407 0.0012759 0.0 
0.00620863 0.000139473 0.0 
0.59464 -0.0301968 0.0 
0.187581 0.0076822 0.0 
1.01654 -0.0151575 0.0 
0.105368 0.00790425 0.0 
0.454492 -0.0543575 0.0 
0.944465 -0.169008 0.0 
0.017407 0.00095508 0.0 
0 0 0.0 
0.00939624 0.000737858 0.0 
0.00664827 0.000294019 0.0 
0.00607424 6.45417e-05 0.0 
0.726792 -0.077995 0.0 
0.118278 -0.0048504 0.0 
0.0523337 0.00212841 0.0 
0 0 0.0 
0.694948 -0.185339 0.0 
0.915305 -0.155392 0.0 
0.160358 0.00998775 0.0 
0 0 0.0 
0.896588 -0.226551 0.0 
0.554801 -0.0326752 0.0 
0.00626111 -0.000420665 0.0 
0.246011 -0.127302 0.0 
0.082582 0.00109391 0.0 
0.00649388 0.000398366 0.0 
0.72314 -0.269642 0.0 
0.76515 -0.0687723 0.0 
0.134052 0.00599341 0.0 
0.497396 -0.21366 0.0 
0.0657066 -0.0106888 0.0 
0.662304 -0.0433196 0.0 
0.829598 -0.263043 0.0 
0.921137 -0.0552537 0.0 
0.0136717 0.00113018 0.0 
0.820296 -0.254603 0.0 
0.122031 0.0073602 0.0 
1.02029 -0.221204 0.0 
0.112235 -0.00189344 0.0 
0 0 0.0 
0.739476 -0.0896301 0.0 
0.098464 0.00602322 0.0 
0.904158 -0.246825 0.0 
0.430852 -0.00539172 0.0 
0.0375889 0.0035242 0.0 
0.295329 -0.00434695 0.0 
0.354906 0.00369118 0.0 
0.0915196 0.00526156 0.0 
0.929154 -0.0526854 0.0 
0.322744 0.00158846 0.0 
0.0666559 0.00558604 0.0 
0.0286429 0.00289148 0.0 
0.0123211 0.000856921 0.0 
1.00243 -0.229914 0.0 
0.354906 -0.157514 0.0 
0.477506 -0.225249 0.0 
0.765883 -0.260155 0.0 
0.419832 -0.0110121 0.0 
0.154556 0.00478806 0.0 
0.258385 0.00853561 0.0 
0.27753 0.00413616 0.0 
0.126175 -0.00823887 0.0 
0.380762 0.00542438 0.0 
0.022349 4.92895e-05 0.0 
0.420491 -0.00213073 0.0 
0.0370613 0.00194546 0.0 
0.931221 -0.0582328 0.0 
0.288364 0.0115475 0.0 
0.227385 -0.0123523 0.0 
0.920451 -0.0600246 0.0 
0.0103183 0.000732871 0.0 
0.342568 0.0105845 0.0 
0.442041 -0.0238745 0.0 
0.759861 -0.024991 0.0 
0.747554 -0.0614694 0.0 
0.90267 -0.052234 0.0 
0.686579 -0.0316611 0.0 
0 0 0.0 
0.15366 0.00551718 0.0 
0.071073 -0.0243294 0.0 
-0.00957695 0.0219181 0.0 
0.282892 0.000183139 0.0 
0.780502 -0.150159 0.0 
0.604683 -0.0245397 0.0 
0.3534 0.00131861 0.0 