<VTKFile type="UnstructuredGrid" version="0.1" byte_order="LittleEndian">
  <UnstructuredGrid>
    <Piece NumberOfPoints="16373" NumberOfCells="32189">
      <Points>
        <DataArray type = "Float64" NumberOfComponents="3" format="ascii">
1.04518 1.03334 0.0 
1.04946 1.03421 0.0 
1.05818 1.02724 0.0 
1.10179 1.026 0.0 
1.04056 1.02316 0.0 
1.08089 1.02285 0.0 
1.05556 1.03495 0.0 
1.06436 1.03196 0.0 
1.07895 1.017 0.0 
1.1109 1.02803 0.0 
1.03615 1.02207 0.0 
1.1038 1.02544 0.0 
1.08154 1.04043 0.0 
1.05598 1.03412 0.0 
1.04034 1.02946 0.0 
1.08362 1.03665 0.0 
1.03937 1.0192 0.0 
1.09396 1.03791 0.0 
1.08775 1.0288 0.0 
1.04361 1.02302 0.0 
1.05614 1.02624 0.0 
1.08566 1.01966 0.0 
1.03601 1.02415 0.0 
1.11502 1.02797 0.0 
1.03564 1.02267 0.0 
1.09453 1.02038 0.0 
1.04571 1.02357 0.0 
1.03542 1.02088 0.0 
1.05616 1.03254 0.0 
1.05388 1.02491 0.0 
1.07147 1.01957 0.0 
1.09437 1.02118 0.0 
1.05455 1.03116 0.0 
1.04976 1.02117 0.0 
1.09104 1.03021 0.0 
1.11626 1.02891 0.0 
1.04618 1.03003 0.0 
1.08231 1.02253 0.0 
1.06487 1.03348 0.0 
1.04371 1.02375 0.0 
1.04032 1.02383 0.0 
1.03705 1.0211 0.0 
1.04758 1.02461 0.0 
1.05526 1.02952 0.0 
1.07718 1.01952 0.0 
1.0379 1.02735 0.0 
1.06609 1.04661 0.0 
1.07516 1.0195 0.0 
1.07664 1.01877 0.0 
1.06236 1.03171 0.0 
1.04574 1.03082 0.0 
1.08247 1.01835 0.0 
1.04508 1.02174 0.0 
1.03497 1.02276 0.0 
1.05542 1.0202 0.0 
1.0776 1.01892 0.0 
1.05528 1.02613 0.0 
1.03705 1.02744 0.0 
1.04145 1.02602 0.0 
1.04822 1.02962 0.0 
1.05594 1.02835 0.0 
1.0587 1.02358 0.0 
1.05407 1.03411 0.0 
1.07168 1.02484 0.0 
1.0698 1.01981 0.0 
1.04199 1.02828 0.0 
1.06856 1.01862 0.0 
1.09376 1.02954 0.0 
1.03757 1.01974 0.0 
1.07035 1.0249 0.0 
1.10581 1.02392 0.0 
1.05109 1.03571 0.0 
1.03645 1.02131 0.0 
1.03803 1.0292 0.0 
1.05731 1.0244 0.0 
1.05194 1.02668 0.0 
1.05004 1.02568 0.0 
1.03747 1.0249 0.0 
1.1068 1.02634 0.0 
1.08412 1.02134 0.0 
1.07421 1.01756 0.0 
1.07105 1.03462 0.0 
1.04292 1.02416 0.0 
1.04213 1.02759 0.0 
1.04648 1.02929 0.0 
1.03671 1.02603 0.0 
1.07109 1.03796 0.0 
1.05012 1.02632 0.0 
1.03812 1.0204 0.0 
1.08619 1.03853 0.0 
1.04694 1.04179 0.0 
1.04873 1.02309 0.0 
1.03624 1.02475 0.0 
1.09899 1.02496 0.0 
1.10901 1.03274 0.0 
1.04449 1.03132 0.0 
1.043 1.03834 0.0 
1.04687 1.02339 0.0 
1.0492 1.0372 0.0 
1.09775 1.02387 0.0 
1.07847 1.02611 0.0 
1.10196 1.02223 0.0 
1.03684 1.02533 0.0 
1.04164 1.01984 0.0 
1.05049 1.0275 0.0 
1.07954 1.01746 0.0 
1.09761 1.02086 0.0 
1.03934 1.02845 0.0 
1.06254 1.0259 0.0 
1.03913 1.03651 0.0 
1.03801 1.02337 0.0 
1.05305 1.04392 0.0 
1.05642 1.03021 0.0 
1.0384 1.02572 0.0 
1.04782 1.02322 0.0 
1.10799 1.02546 0.0 
1.03979 1.02064 0.0 
1.05285 1.03282 0.0 
1.04325 1.03289 0.0 
1.07496 1.01805 0.0 
1.03853 1.02791 0.0 
1.04466 1.02413 0.0 
1.05607 1.02008 0.0 
1.08085 1.02631 0.0 
1.04653 1.02693 0.0 
1.03575 1.01902 0.0 
1.0837 1.01831 0.0 
1.07142 1.03641 0.0 
1.04364 1.02682 0.0 
1.04303 1.02808 0.0 
1.07712 1.01685 0.0 
1.09816 1.02246 0.0 
1.07592 1.01831 0.0 
1.04151 1.03303 0.0 
1.07961 1.01679 0.0 
1.03878 1.01917 0.0 
1.05638 1.02896 0.0 
1.03919 1.03276 0.0 
1.09041 1.01993 0.0 
1.08501 1.02761 0.0 
1.04273 1.0201 0.0 
1.04956 1.02001 0.0 
1.05783 1.03312 0.0 
1.07372 1.01767 0.0 
1.04191 1.02125 0.0 
1.03944 1.02785 0.0 
1.0851 1.02072 0.0 
1.04399 1.03411 0.0 
1.08183 1.02749 0.0 
1.03795 1.03375 0.0 
1.07765 1.03885 0.0 
1.07957 1.01981 0.0 
1.0561 1.02072 0.0 
1.05963 1.027 0.0 
1.10495 1.03492 0.0 
1.04218 1.01996 0.0 
1.0756 1.03538 0.0 
1.08117 1.01964 0.0 
1.08154 1.01728 0.0 
1.07615 1.0171 0.0 
1.09252 1.0288 0.0 
1.10503 1.0341 0.0 
1.07555 1.01881 0.0 
1.08946 1.02957 0.0 
1.03757 1.03031 0.0 
1.05031 1.02184 0.0 
1.08297 1.01773 0.0 
1.04744 1.02388 0.0 
1.03557 1.02021 0.0 
1.05549 1.04174 0.0 
1.0938 1.03061 0.0 
1.04025 1.0282 0.0 
1.0409 1.02526 0.0 
1.05054 1.03006 0.0 
1.09755 1.0218 0.0 
1.0897 1.03278 0.0 
1.08979 1.02868 0.0 
1.05671 1.02536 0.0 
1.05413 1.02403 0.0 
1.06102 1.02992 0.0 
1.04836 1.0331 0.0 
1.06832 1.03049 0.0 
1.07723 1.02033 0.0 
1.095 1.03215 0.0 
1.61926 1.04939 0.0 
1.1008 1.02346 0.0 
1.08201 1.02557 0.0 
1.03637 1.01905 0.0 
1.06541 1.03507 0.0 
1.04049 1.02686 0.0 
1.06488 1.03087 0.0 
1.03761 1.01912 0.0 
1.10718 1.0273 0.0 
1.0468 1.02073 0.0 
1.07222 1.02192 0.0 
1.06569 1.02485 0.0 
1.05829 1.02433 0.0 
1.0783 1.01721 0.0 
1.03999 1.02545 0.0 
1.0392 1.02564 0.0 
1.04612 1.01945 0.0 
1.04081 1.02106 0.0 
1.07741 1.01835 0.0 
1.05086 1.03076 0.0 
1.04108 1.02733 0.0 
1.03631 1.02298 0.0 
1.08337 1.01909 0.0 
1.08057 1.02202 0.0 
1.07571 1.01721 0.0 
1.05704 1.02954 0.0 
1.07448 1.02324 0.0 
1.05636 1.0196 0.0 
1.076 1.02004 0.0 
1.03677 1.02368 0.0 
1.04543 1.03195 0.0 
1.07518 1.01734 0.0 
1.04175 1.02891 0.0 
1.03634 1.02771 0.0 
1.04035 1.02248 0.0 
1.08719 1.02696 0.0 
1.03714 1.02029 0.0 
1.08918 1.0227 0.0 
1.29478 1.05244 0.0 
1.05108 1.01956 0.0 
1.03613 1.02357 0.0 
1.04831 1.02212 0.0 
1.04113 1.0236 0.0 
1.0928 1.02738 0.0 
1.10426 1.03192 0.0 
1.03771 1.02791 0.0 
1.04969 1.02691 0.0 
1.1033 1.03257 0.0 
1.0473 1.03021 0.0 
1.04156 1.02969 0.0 
1.04335 1.03109 0.0 
1.04331 1.02745 0.0 
1.0931 1.02329 0.0 
1.07469 1.01745 0.0 
1.05196 1.02852 0.0 
1.07836 1.01865 0.0 
1.03495 1.02149 0.0 
1.04857 1.02011 0.0 
1.05183 1.02131 0.0 
1.0794 1.02134 0.0 
1.07831 1.01991 0.0 
1.08282 1.02016 0.0 
1.03816 1.02855 0.0 
1.04019 1.03182 0.0 
1.05348 1.02637 0.0 
1.08416 1.03946 0.0 
1.10418 1.02312 0.0 
1.04656 1.02489 0.0 
1.04368 1.02468 0.0 
1.03811 1.02679 0.0 
1.05016 1.02822 0.0 
1.0693 1.0185 0.0 
1.03902 1.02442 0.0 
1.06042 1.02856 0.0 
1.07637 1.01773 0.0 
1.07556 1.01785 0.0 
1.04392 1.02624 0.0 
1.04577 1.03585 0.0 
1.04763 1.02657 0.0 
1.05591 1.02554 0.0 
1.04831 1.02392 0.0 
1.05307 1.03141 0.0 
1.06579 1.02308 0.0 
1.04724 1.03133 0.0 
1.11205 1.03393 0.0 
1.06146 1.03392 0.0 
1.04736 1.02973 0.0 
1.04059 1.02588 0.0 
1.08156 1.01892 0.0 
1.08123 1.03522 0.0 
1.04239 1.03119 0.0 
1.04761 1.01992 0.0 
1.05564 1.02306 0.0 
1.07463 1.01884 0.0 
1.04493 1.02836 0.0 
1.05289 1.0267 0.0 
1.11301 1.0322 0.0 
1.09231 1.03877 0.0 
1.0473 1.03212 0.0 
1.05006 1.02487 0.0 
1.04152 1.02685 0.0 
1.0521 1.03453 0.0 
1.03728 1.02889 0.0 
1.07936 1.02318 0.0 
1.05049 1.03344 0.0 
1.04197 1.03501 0.0 
1.0683 1.03245 0.0 
1.10666 1.0313 0.0 
1.04516 1.03029 0.0 
1.06244 1.02484 0.0 
1.07308 1.01847 0.0 
1.08132 1.02363 0.0 
1.10112 1.02135 0.0 
1.07732 1.02204 0.0 
1.09181 1.02252 0.0 
1.04881 1.02085 0.0 
1.04689 1.02003 0.0 
1.08959 1.02361 0.0 
1.07343 1.01991 0.0 
1.04867 1.03108 0.0 
1.09452 1.02797 0.0 
1.08037 1.0185 0.0 
1.04778 1.02048 0.0 
1.04845 1.03174 0.0 
1.07513 1.02177 0.0 
1.07284 1.02125 0.0 
1.08603 1.02389 0.0 
1.09986 1.03095 0.0 
1.07422 1.01953 0.0 
1.03535 1.02206 0.0 
1.03703 1.02823 0.0 
1.07497 1.0211 0.0 
1.09256 1.02661 0.0 
1.08467 1.02462 0.0 
1.05759 1.0316 0.0 
1.08738 1.02524 0.0 
1.07725 1.02307 0.0 
1.08205 1.0307 0.0 
1.04357 1.02556 0.0 
1.04176 1.0254 0.0 
1.04596 1.0275 0.0 
1.07924 1.01822 0.0 
1.09385 1.02499 0.0 
1.07409 1.02156 0.0 
1.0488 1.02469 0.0 
1.10034 1.02833 0.0 
1.08918 1.0263 0.0 
1.03884 1.02125 0.0 
1.10675 1.02804 0.0 
1.11541 1.03047 0.0 
1.04255 1.02934 0.0 
1.08438 1.02543 0.0 
1.04709 1.0254 0.0 
1.07274 1.01788 0.0 
1.07063 1.01955 0.0 
1.08647 1.02143 0.0 
1.05449 1.0327 0.0 
1.0788 1.02391 0.0 
1.1082 1.03068 0.0 
1.07809 1.01659 0.0 
1.07601 1.02074 0.0 
1.04709 1.02169 0.0 
1.1003 1.0291 0.0 
1.03833 1.02402 0.0 
1.03691 1.02178 0.0 
1.04783 1.01949 0.0 
1.08133 1.01828 0.0 
1.07841 1.01931 0.0 
1.07854 1.02245 0.0 
1.03937 1.02223 0.0 
1.07348 1.01901 0.0 
1.06362 1.0313 0.0 
1.09668 1.02871 0.0 
1.08211 1.02456 0.0 
1.07287 1.02049 0.0 
1.08609 1.02202 0.0 
1.07451 1.02239 0.0 
1.08491 1.0186 0.0 
1.11304 1.03163 0.0 
1.08787 1.01924 0.0 
1.08325 1.02329 0.0 
1.04569 1.02454 0.0 
1.10278 1.02756 0.0 
1.0412 1.02277 0.0 
1.05785 1.02289 0.0 
1.0865 1.0261 0.0 
1.03722 1.02295 0.0 
1.07442 1.03752 0.0 
1.05836 1.01956 0.0 
1.04731 1.03364 0.0 
1.03627 1.02057 0.0 
1.04162 1.02483 0.0 
1.05769 1.03086 0.0 
1.09931 1.02672 0.0 
1.0801 1.02473 0.0 
1.05469 1.02556 0.0 
1.0756 1.02293 0.0 
1.06825 1.02697 0.0 
1.07381 1.02076 0.0 
1.03965 1.02683 0.0 
1.09503 1.02614 0.0 
1.10376 1.02854 0.0 
1.07323 1.01777 0.0 
1.03894 1.02722 0.0 
1.06721 1.03106 0.0 
1.0508 1.04022 0.0 
1.08268 1.03225 0.0 
1.04202 1.032 0.0 
1.07225 1.01797 0.0 
1.07176 1.01807 0.0 
1.0758 1.02368 0.0 
1.05122 1.03281 0.0 
1.07599 1.02228 0.0 
1.07151 1.01874 0.0 
1.08294 1.02195 0.0 
1.07198 1.01924 0.0 
1.10447 1.02951 0.0 
1.11165 1.03099 0.0 
1.08348 1.024 0.0 
1.04628 1.03807 0.0 
1.09817 1.02773 0.0 
1.04436 1.02726 0.0 
1.11378 1.02948 0.0 
1.11224 1.02877 0.0 
1.0954 1.02709 0.0 
1.08266 1.01955 0.0 
1.05783 1.03237 0.0 
1.03672 1.01974 0.0 
1.07271 1.01937 0.0 
1.07226 1.0199 0.0 
1.07239 1.0187 0.0 
1.07614 1.02151 0.0 
1.07113 1.01905 0.0 
1.07078 1.01825 0.0 
1.07127 1.01816 0.0 
1.04008 1.02 0.0 
1.05813 1.03495 0.0 
1.07041 1.0189 0.0 
1.07051 1.02032 0.0 
1.09716 1.02943 0.0 
1.0327 1.02709 0.0 
1.07718 1.02527 0.0 
1.1095 1.02949 0.0 
1.07728 1.02421 0.0 
1.08963 1.02468 0.0 
1.07231 1.02268 0.0 
1.05461 1.01961 0.0 
1.03528 1.01963 0.0 
1.10965 1.03156 0.0 
1.09127 1.02566 0.0 
1.08416 1.02656 0.0 
1.0413 1.0205 0.0 
1.07935 1.02529 0.0 
1.04532 1.02264 0.0 
1.0639 1.03026 0.0 
1.07118 1.02073 0.0 
1.08809 1.028 0.0 
1.11133 1.02714 0.0 
1.07202 1.02063 0.0 
1.07468 1.02027 0.0 
1.0744 1.02406 0.0 
1.0711 1.02195 0.0 
1.07345 1.02359 0.0 
1.09779 1.02576 0.0 
1.09216 1.02177 0.0 
1.07579 1.02458 0.0 
1.10412 1.03338 0.0 
1.09019 1.02721 0.0 
1.03736 1.02219 0.0 
1.0305 1.02768 0.0 
1.0666 1.03014 0.0 
1.07163 1.02126 0.0 
1.07865 1.02179 0.0 
1.05309 1.03065 0.0 
1.0428 1.02873 0.0 
1.05818 1.03615 0.0 
1.05314 1.02848 0.0 
1.06291 1.03466 0.0 
1.03621 1.02535 0.0 
1.0736 1.0228 0.0 
1.10794 1.02873 0.0 
1.0612 1.0359 0.0 
1.05941 1.03372 0.0 
1.07392 1.01826 0.0 
1.08018 1.0381 0.0 
1.06363 1.0355 0.0 
[...]
<PointData>
  <DataArray type = "Float64" Name="Vitesse" NumberOfComponents="3" format="ascii">
1.22741 0.150741 0.0 
1.2232 0.130057 0.0 
0.844331 0.041078 0.0 
0.549807 -0.00852632 0.0 
0.577038 0.0533613 0.0 
0.295283 -0.0114638 0.0 
1.2154 0.104502 0.0 
1.1221 0.0578995 0.0 
0.00437674 -0.000672867 0.0 
0.694143 -0.0105754 0.0 
0.49884 0.0530923 0.0 
0.508976 -0.00879526 0.0 
1.18501 0.0421982 0.0 
1.2092 0.100901 0.0 
1.20186 0.168641 0.0 
1.15828 0.032029 0.0 
0 0 0.0 
1.15146 0.0216566 0.0 
0.793558 -0.00123325 0.0 
0.497196 0.0372765 0.0 
0.756797 0.0375424 0.0 
0.100022 -0.00356312 0.0 
0.853357 0.115809 0.0 
0.687477 -0.0121777 0.0 
0.62111 0.0745251 0.0 
0.160334 -0.000417671 0.0 
0.544496 0.0383813 0.0 
0.302838 0.027874 0.0 
1.18552 0.0943023 0.0 
0.621096 0.0302456 0.0 
0.0572429 -0.00643004 0.0 
0.204084 -0.00259695 0.0 
1.15535 0.0937821 0.0 
0.178684 0.00600349 0.0 
0.884127 0.0019043 0.0 
0.748909 -0.0119229 0.0 
1.17614 0.131932 0.0 
0.271441 -0.0107455 0.0 
1.16599 0.0638895 0.0 
0.605623 0.0497334 0.0 
0.689284 0.0699775 0.0 
0.307271 0.026179 0.0 
0.66363 0.0478271 0.0 
1.06749 0.0772216 0.0 
0.0716603 -0.00684774 0.0 
1.1405 0.167764 0.0 
1.18894 0.0790012 0.0 
0.0651775 -0.00697184 0.0 
0.0397354 -0.00487376 0.0 
1.12473 0.0637544 0.0 
1.20112 0.139707 0.0 
0.0404252 -0.00211424 0.0 
0.289766 0.0158279 0.0 
0.658346 0.0833617 0.0 
0.0559433 0.000119174 0.0 
0.0480985 -0.00520617 0.0 
0.753699 0.0392029 0.0 
1.15782 0.177756 0.0 
0.960302 0.110873 0.0 
1.14088 0.115327 0.0 
0.972857 0.0618361 0.0 
0.416814 0.0075251 0.0 
1.21411 0.109039 0.0 
0.492827 -0.0060625 0.0 
0.0638501 -0.0066305 0.0 
1.1389 0.144059 0.0 
0 0 0.0 
0.829792 -0.00154039 0.0 
0.0849767 0.00499269 0.0 
0.504148 -0.00447847 0.0 
0.401714 -0.00796203 0.0 
1.22224 0.123936 0.0 
0.356601 0.0331222 0.0 
1.21085 0.185533 0.0 
0.526006 0.0163673 0.0 
0.858546 0.0592674 0.0 
0.767096 0.0537533 0.0 
0.917149 0.121432 0.0 
0.575406 -0.00980849 0.0 
0.190047 -0.00846476 0.0 
0 0 0.0 
1.1647 0.0505919 0.0 
0.682506 0.0617363 0.0 
1.09295 0.133451 0.0 
1.14212 0.123369 0.0 
1.06167 0.156755 0.0 
1.19604 0.0593029 0.0 
0.842105 0.0626805 0.0 
0.177386 0.0120534 0.0 
1.17087 0.0322046 0.0 
1.20097 0.13953 0.0 
0.437386 0.0236928 0.0 
0.930776 0.13019 0.0 
0.469837 -0.00797712 0.0 
0.977279 -0.00190606 0.0 
1.21572 0.149779 0.0 
1.21155 0.159778 0.0 
0.502063 0.0320992 0.0 
1.21976 0.132814 0.0 
0.388144 -0.00705627 0.0 
0.592986 -0.00618872 0.0 
0.284634 -0.00432668 0.0 
0.987015 0.139218 0.0 
0.0653391 0.00271513 0.0 
0.962136 0.0774427 0.0 
0.0120065 -0.00148564 0.0 
0.193962 -0.00116725 0.0 
1.17748 0.168289 0.0 
0.65846 0.0153027 0.0 
1.21484 0.181312 0.0 
0.673259 0.0747614 0.0 
1.19668 0.116454 0.0 
1.09802 0.0776954 0.0 
0.993116 0.132122 0.0 
0.466245 0.0274026 0.0 
0.511931 -0.0100635 0.0 
0.191133 0.0119301 0.0 
1.20473 0.110494 0.0 
1.22897 0.160819 0.0 
0.0126499 -0.00235642 0.0 
1.16278 0.169823 0.0 
0.644769 0.0522576 0.0 
0.0441457 -0.000165604 0.0 
0.603773 -0.00667107 0.0 
0.965215 0.0915692 0.0 
0 0 0.0 
0.0419979 -0.0014723 0.0 
1.18714 0.0551908 0.0 
1.00254 0.109226 0.0 
1.11381 0.133493 0.0 
0 0 0.0 
0.291697 -0.00468837 0.0 
0.0231067 -0.00352182 0.0 
1.23038 0.171064 0.0 
0.00316261 -0.00040392 0.0 
0 0 0.0 
1.01718 0.0664191 0.0 
1.23088 0.185207 0.0 
0.126735 -0.00141904 0.0 
0.705362 -0.00399983 0.0 
0.0909575 0.00408296 0.0 
0.0488357 0.00117388 0.0 
1.18978 0.0895771 0.0 
0 0 0.0 
0.255046 0.0156952 0.0 
1.1474 0.160268 0.0 
0.154115 -0.00668581 0.0 
1.22793 0.157509 0.0 
0.706949 -0.00307602 0.0 
1.22633 0.191824 0.0 
1.18731 0.0466796 0.0 
0.0921619 -0.00704701 0.0 
0.107143 0.000318133 0.0 
0.803972 0.0333194 0.0 
1.06866 0.00569659 0.0 
0.0771943 0.00334267 0.0 
1.16243 0.0427449 0.0 
0.0878195 -0.00604977 0.0 
0.0124641 -0.000547891 0.0 
0 0 0.0 
0.779063 -0.00307437 0.0 
1.04126 0.00384346 0.0 
0.0379723 -0.00493873 0.0 
0.84539 0.000612543 0.0 
1.22873 0.194247 0.0 
0.257684 0.00966811 0.0 
0.0242067 -0.00057813 0.0 
0.563473 0.0373118 0.0 
0.184781 0.0146248 0.0 
1.20438 0.109031 0.0 
0.901299 0.00165851 0.0 
1.15606 0.157396 0.0 
0.880678 0.099045 0.0 
1.14042 0.106117 0.0 
0.248884 -0.00346571 0.0 
1.0326 0.0121403 0.0 
0.77798 -0.00240915 0.0 
0.647623 0.0264189 0.0 
0.506698 0.0207882 0.0 
1.04175 0.0556507 0.0 
1.22091 0.133419 0.0 
1.02199 0.0361042 0.0 
0.113955 -0.00883312 0.0 
0.984745 0.00575974 0.0 
1.00467 -0.0151892 0.0 
0.363045 -0.00646096 0.0 
0.531858 -0.00904993 0.0 
0 0 0.0 
1.19101 0.0686074 0.0 
1.06205 0.135368 0.0 
1.06828 0.0489555 0.0 
0 0 0.0 
0.64509 -0.00961566 0.0 
0.142834 0.00562221 0.0 
0.216299 -0.0114788 0.0 
0.520874 0.00164102 0.0 
0.508924 0.0135169 0.0 
0.00576311 -0.00114928 0.0 
0.924843 0.110539 0.0 
0.966186 0.122489 0.0 
0 0 0.0 
0.241621 0.0155699 0.0 
0.0283275 -0.00360614 0.0 
1.16685 0.109844 0.0 
1.08966 0.138072 0.0 
0.654428 0.0776653 0.0 
0.0692376 -0.00343403 0.0 
0.230876 -0.0109007 0.0 
0 0 0.0 
1.05212 0.0690227 0.0 
0.330246 -0.0116024 0.0 
0 0 0.0 
0.0950389 -0.00836051 0.0 
0.758964 0.0941359 0.0 
1.21969 0.146277 0.0 
0 0 0.0 
1.17201 0.152821 0.0 
1.17912 0.188443 0.0 
0.471369 0.0401307 0.0 
0.643744 -0.00654684 0.0 
0.173468 0.0126762 0.0 
0.291041 -0.00842393 0.0 
1.01545 -0.070636 0.0 
0 0 0.0 
0.760006 0.0974838 0.0 
0.30947 0.0145611 0.0 
0.634552 0.0597558 0.0 
0.666571 -0.0064135 0.0 
0.948021 -0.000756756 0.0 
1.17232 0.177116 0.0 
0.914101 0.0732196 0.0 
0.982607 0.00146671 0.0 
1.17337 0.126135 0.0 
1.19969 0.160908 0.0 
1.21726 0.155984 0.0 
1.06434 0.122244 0.0 
0.33928 -0.0074271 0.0 
0 0 0.0 
1.03168 0.0825652 0.0 
0.0403566 -0.00433344 0.0 
0.42551 0.0453005 0.0 
0.0629915 0.00180948 0.0 
0.185325 0.00532419 0.0 
0.181806 -0.0103071 0.0 
0.0939263 -0.00763273 0.0 
0.117438 -0.00649351 0.0 
1.19245 0.179677 0.0 
1.23071 0.178438 0.0 
0.803303 0.0489214 0.0 
1.17892 0.0366868 0.0 
0.345968 -0.0063206 0.0 
0.717694 0.0567089 0.0 
0.74214 0.0677508 0.0 
1.0986 0.15657 0.0 
1.02977 0.0886826 0.0 
0 0 0.0 
0.810198 0.0944345 0.0 
0.945191 0.0458243 0.0 
0.00995106 -0.00201843 0.0 
0.0102756 -0.00180923 0.0 
0.936585 0.0966021 0.0 
1.22357 0.148581 0.0 
0.908964 0.079137 0.0 
0.677213 0.0306964 0.0 
0.556831 0.0351454 0.0 
1.17306 0.102607 0.0 
0.33053 -0.00586462 0.0 
1.20382 0.133518 0.0 
1.02057 -0.00157031 0.0 
1.18895 0.078546 0.0 
1.15427 0.121847 0.0 
0.962048 0.115215 0.0 
0.0582473 -0.00405865 0.0 
1.14132 0.0317631 0.0 
1.2221 0.16268 0.0 
0.0455801 0.00139486 0.0 
0.373152 0.0101478 0.0 
0.036227 -0.00481374 0.0 
1.1072 0.12313 0.0 
0.847339 0.0554593 0.0 
0.943724 -0.00541607 0.0 
1.16239 0.0250148 0.0 
1.21538 0.136346 0.0 
0.661952 0.0421361 0.0 
1.04283 0.126225 0.0 
1.22016 0.118338 0.0 
1.20882 0.1901 0.0 
0.322571 -0.0118169 0.0 
1.21815 0.123778 0.0 
1.2251 0.167856 0.0 
1.11843 0.0484189 0.0 
0.909533 -0.0036324 0.0 
1.19083 0.139957 0.0 
0.539253 0.00781764 0.0 
0.0178631 -0.0028941 0.0 
0.359904 -0.0114966 0.0 
0.230733 -0.00193297 0.0 
0.228892 -0.0116963 0.0 
0.282614 -0.00671317 0.0 
0.146496 0.00501154 0.0 
0.0605648 0.00192933 0.0 
0.359882 -0.00916289 0.0 
0.0807377 -0.00799614 0.0 
1.1905 0.123998 0.0 
0.710696 -0.00550622 0.0 
0.0404412 -0.00357957 0.0 
0.108089 0.00376132 0.0 
1.20555 0.128681 0.0 
0.2067 -0.0116701 0.0 
0.165052 -0.0109367 0.0 
0.381426 -0.0103435 0.0 
0.905053 -0.000594181 0.0 
0.0642204 -0.00689551 0.0 
0.518721 0.0585614 0.0 
1.19242 0.187148 0.0 
0.158 -0.0107264 0.0 
0.603834 -0.00766508 0.0 
0.443477 -0.0104213 0.0 
1.15102 0.0827575 0.0 
0.49409 -0.00941208 0.0 
0.313027 -0.0121304 0.0 
0.952914 0.0115286 0.0 
0.862031 0.0858837 0.0 
0.879289 0.0955149 0.0 
1.02759 0.104137 0.0 
0.0290631 -0.00310025 0.0 
0.471105 -0.00845957 0.0 
0.189793 -0.0113107 0.0 
0.656065 0.0443999 0.0 
0.727429 -0.00637885 0.0 
0.582646 -0.00809819 0.0 
0.300215 0.0231 0.0 
0.698744 -0.00888829 0.0 
0.845991 -0.00962124 0.0 
1.18072 0.150872 0.0 
0.51458 -0.00944575 0.0 
0.777941 0.0628648 0.0 
0 0 0.0 
0.052639 -0.00597436 0.0 
0.200161 -0.00768171 0.0 
1.19629 0.102505 0.0 
0.386591 -0.0114017 0.0 
0.870842 -0.00571282 0.0 
0 0 0.0 
0.136079 -0.00999277 0.0 
0.263293 0.0124738 0.0 
0.783138 -0.00497288 0.0 
0.768212 0.0895747 0.0 
0.427505 0.0414897 0.0 
0 0 0.0 
0.0358716 -0.00260985 0.0 
0.0660665 -0.00605456 0.0 
0.2626 -0.0118495 0.0 
0.451353 0.0395866 0.0 
0.0387214 -0.00510042 0.0 
1.0985 0.0562821 0.0 
0.762079 -0.00460331 0.0 
0.440234 -0.010781 0.0 
0.113676 -0.00949313 0.0 
0.238742 -0.00899607 0.0 
0.255778 -0.0118854 0.0 
0.0548134 -0.00121567 0.0 
0.914455 -0.00648074 0.0 
0.0885435 -0.000907293 0.0 
0.331872 -0.0110479 0.0 
0.685138 0.0546789 0.0 
0.667163 -0.00805414 0.0 
0.502222 0.0422422 0.0 
0.339938 0.00523689 0.0 
0.56993 -0.00828662 0.0 
0.623832 0.0693868 0.0 
1.18765 0.0508571 0.0 
0 0 0.0 
1.22511 0.139824 0.0 
0.232105 0.0186955 0.0 
0.805591 0.0838716 0.0 
1.12039 0.0772143 0.0 
0.606333 -0.00792458 0.0 
0.45849 -0.0103752 0.0 
0.692684 0.0349089 0.0 
0.302245 -0.011951 0.0 
0.730672 0.0105236 0.0 
0.133072 -0.0100261 0.0 
1.07445 0.142671 0.0 
0.563129 -0.00794217 0.0 
0.738102 -0.00718102 0.0 
0 0 0.0 
1.11684 0.155955 0.0 
1.06203 0.0430867 0.0 
1.20931 0.125851 0.0 
1.03661 0.0179536 0.0 
1.22855 0.166883 0.0 
0 0 0.0 
0 0 0.0 
0.369049 -0.0114051 0.0 
1.2103 0.11846 0.0 
0.247507 -0.0120205 0.0 
0.0206034 -0.00318882 0.0 
0.229614 -0.00984747 0.0 
0.0431113 -0.005393 0.0 
0.803851 -0.00593881 0.0 
0.882124 -0.00689824 0.0 
0.390847 -0.0109968 0.0 
1.21553 0.145085 0.0 
0.685535 -0.00663551 0.0 
1.03137 0.111264 0.0 
0.788474 -0.0102155 0.0 
0.743491 -0.0103865 0.0 
0.639345 -0.00707289 0.0 
0.0872318 -0.00502482 0.0 
1.17332 0.086148 0.0 
0.0940939 0.00607046 0.0 
0.0516484 -0.00607516 0.0 
0.077196 -0.0078498 0.0 
0.0225788 -0.00335338 0.0 
0.188383 -0.0113105 0.0 
0.0312417 -0.00415224 0.0 
0 0 0.0 
0 0 0.0 
0.0977377 0.00497035 0.0 
1.20997 0.0941529 0.0 
0.0217309 -0.00301909 0.0 
0.0964724 -0.00852125 0.0 
0.813278 -0.00316017 0.0 
1.19587 0.222912 0.0 
0.516041 -0.00841586 0.0 
0.794603 -0.00834789 0.0 
0.415832 -0.010942 0.0 
0.445767 -0.00938358 0.0 
0.281392 -0.011539 0.0 
0 0 0.0 
0.0949404 0.00646604 0.0 
0.917576 -0.00468847 0.0 
0.526323 -0.0087417 0.0 
0.615952 -0.00701197 0.0 
0.15584 0.00844692 0.0 
0.511987 -0.00901602 0.0 
0.41492 0.0261213 0.0 
1.03999 0.0477474 0.0 
0.125132 -0.00969289 0.0 
0.729134 -0.00398818 0.0 
0.63172 -0.0112455 0.0 
0.120285 -0.00978865 0.0 
0.104566 -0.00900419 0.0 
0.406455 -0.0103744 0.0 
0.218501 -0.0113145 0.0 
0.364142 -0.0108403 0.0 
0.531919 -0.00819055 0.0 
0.234379 -0.00494797 0.0 
0.453968 -0.00977284 0.0 
1.01567 0.00281318 0.0 
0.657923 -0.00651975 0.0 
0.488381 0.0489043 0.0 
1.22454 0.25353 0.0 
1.01168 0.0384308 0.0 
0.164675 -0.0108103 0.0 
0.212442 -0.0111569 0.0 
1.14567 0.0973872 0.0 
1.15294 0.143009 0.0 
1.21428 0.0961083 0.0 
1.01526 0.0764163 0.0 
1.19424 0.075697 0.0 
1.00415 0.14686 0.0 
0.291423 -0.0116485 0.0 
0.745717 -0.0086573 0.0 
1.20841 0.0848752 0.0 
1.19344 0.0854636 0.0 
0.0145235 -0.00246141 0.0 
1.17933 0.040762 0.0 
1.20026 0.0756181 0.0 
0.00829169 -0.00129011 0.0 
0.322514 0.00275199 0.0 
0.608749 -0.00878102 0.0 
0.231601 -0.0116526 0.0 
1.11422 0.0351488 0.0 
0.132666 -0.00898791 0.0 
0 0 0.0 
0.151183 -0.00784677 0.0 
0.426717 0.0308074 0.0 
0.251835 0.00151571 0.0 
0.146368 0.00718162 0.0 
1.22527 0.172077 0.0 
0.124194 -0.00782306 0.0 
1.10948 0.0920084 0.0 
0.976102 0.0896957 0.0 
0.879788 0.0847148 0.0 
0.0211131 -0.00187933 0.0 
1.18432 0.163037 0.0 
0 0 0.0 
0.613377 0.0441506 0.0 
0.565279 0.0562646 0.0 
0.886358 0.0661605 0.0 
0.553201 0.0664884 0.0 
0.947827 0.0655866 0.0 
0.832653 -0.00840031 0.0 
1.1094 0.116392 0.0 
1.0654 0.0910144 0.0 
0.297439 -0.0101235 0.0 
0.879977 -0.000837746 0.0 
0 0 0.0 
0.538502 0.0576411 0.0 
0.0540897 -0.00264327 0.0 
1.12804 0.0190496 0.0 
1.21507 0.234614 0.0 
1.1082 0.0965912 0.0 
1.15417 0.0354385 0.0 
0 0 0.0 
0.92347 0.021602 0.0 
0.946078 0.0817761 0.0 
0.978625 0.0285742 0.0 
0.618497 0.00627841 0.0 
1.17902 0.0805203 0.0 
0.553855 0.0327345 0.0 
0.878621 0.0150136 0.0 
0.904742 0.0120109 0.0 
0.117925 0.00113742 0.0 
0.378133 0.0243796 0.0 
0.750035 0.0306591 0.0 
0.774506 -0.00135111 0.0 
0.0235531 0.00013884 0.0 
0.780826 0.0008552 0.0 
1.1379 0.0184964 0.0 
0.858626 -0.00329439 0.0 
1.00369 0.0229125 0.0 
0 0 0.0 
1.1947 0.0610402 0.0 
0.909228 0.113866 0.0 
0 0 0.0 
0 0 0.0 
1.09132 0.0392367 0.0 
0.150808 -0.0102904 0.0 
0.0211813 -0.00315242 0.0 
1.21036 0.157587 0.0 
0.737337 0.0250649 0.0 
0.93856 0.122961 0.0 
0 0 0.0 
1.11024 0.0172945 0.0 
0.680448 0.00517871 0.0 
0.790731 0.00434552 0.0 
0.197286 0.000926705 0.0 
0.763082 0.022743 0.0 
0.124719 -0.003394 0.0 
1.01586 0.0307787 0.0 
0 0 0.0 
1.17894 0.139594 0.0 
0.0587103 -0.00512623 0.0 
0.991281 0.0856504 0.0 
1.19211 0.107104 0.0 
0.114006 -0.00274053 0.0 
0.756812 -0.001317 0.0 
0.620173 -0.00119871 0.0 
0.0103142 -0.00182199 0.0 
1.14162 0.101467 0.0 
1.14427 0.053439 0.0 
1.2047 0.0780875 0.0 
1.06085 0.062823 0.0 
0.78245 0.0444783 0.0 
1.02547 0.0713171 0.0 
0.531659 -0.00744986 0.0 
0.571193 0.0213321 0.0 
0.662078 -0.002773 0.0 
0.151046 0.00868736 0.0 
1.09394 0.0504557 0.0 
0.459627 0.00115105 0.0 
0.0605628 -0.00646523 0.0 
0.41825 0.00185732 0.0 
1.11537 0.166921 0.0 
0.664284 -0.000186771 0.0 
0.835514 0.0311156 0.0 
0.985188 0.0336731 0.0 
0.0340352 -0.00425665 0.0 
0.692052 -0.00231588 0.0 
1.14914 0.0253765 0.0 
0.0838296 -0.00515577 0.0 
0.906825 0.0629645 0.0 
0.490508 -0.00804498 0.0 
0.0782609 -0.0019627 0.0 
0.584649 -0.00457438 0.0 
0.952205 0.014121 0.0 
0.903277 0.0263265 0.0 
1.12736 0.146211 0.0 
0.841528 -0.00590608 0.0 
1.04161 0.00714238 0.0 
0.161366 -0.000825738 0.0 
0.955774 0.00920437 0.0 
0.391952 -0.00516144 0.0 
0.726715 0.00270273 0.0 
0.364239 0.0013553 0.0 
0.106702 -0.0024017 0.0 
0.911471 0.00925468 0.0 
0.531998 -0.00540503 0.0 
0.886616 -0.00327142 0.0 
1.20267 0.0862698 0.0 
1.06467 0.0313094 0.0 
0.00643235 -0.000413304 0.0 
0.487348 0.00755846 0.0 
1.18676 0.046392 0.0 
0.921015 0.00412236 0.0 
0.872206 0.0187785 0.0 
1.00271 -0.00146579 0.0 
0.987796 0.0163004 0.0 
0 0 0.0 
0.398423 0.0499292 0.0 
0.0528061 0.00027544 0.0 
0 0 0.0 
1.21628 0.165867 0.0 
0.572944 0.0497862 0.0 
1.17835 0.0449968 0.0 
0.772415 0.00461722 0.0 
0.95252 0.0070872 0.0 
0 0 0.0 
1.05732 0.112878 0.0 
1.14695 0.132195 0.0 
0.264493 -0.00987264 0.0 
0.938137 0.0268284 0.0 
1.19479 0.0658257 0.0 
0.433173 0.0745058 0.0 
1.16668 0.114802 0.0 
1.01843 0.00601714 0.0 
0.132327 -0.00595148 0.0 
1.14614 0.0290726 0.0 
0.948646 0.00245164 0.0 
0.975185 0.0730356 0.0 
0.727306 0.00547209 0.0 
0.216575 0.0195563 0.0 
0.992382 0.0141022 0.0 
0.308448 0.0194444 0.0 
0.0738657 0.00261478 0.0 
0.724845 0.000596952 0.0 
1.15924 0.153642 0.0 
1.14608 0.0388389 0.0 
1.11612 0.0877512 0.0 
0.930409 -0.000364349 0.0 
1.00248 0.0805014 0.0 
1.05426 0.0135931 0.0 
1.11022 0.00863034 0.0 
0.35226 -0.0101219 0.0 
0.865063 0.00631759 0.0 
1.02679 0.100286 0.0 
1.10145 0.0624035 0.0 
0.107555 -0.00865074 0.0 
1.0681 0.0868857 0.0 
0.832832 -0.00322197 0.0 
1.11072 0.0296718 0.0 
0 0 0.0 
1.07338 0.0549921 0.0 
0.350941 0.0146727 0.0 
0.341385 -0.00246888 0.0 
0.0345553 -0.00404667 0.0 
1.19544 0.0606905 0.0 
1.22742 0.182893 0.0 
0.0532598 -0.00300308 0.0 
0.709594 0.030816 0.0 
0.911615 0.0516436 0.0 
1.23193 0.190951 0.0 
1.07696 0.0617064 0.0 
0.502163 0.0106536 0.0 
0.108192 0.00424299 0.0 
1.08987 0.0251651 0.0 
1.18905 0.113202 0.0 
0.7531 0.0102873 0.0 
1.16614 0.142037 0.0 
1.00014 -0.0184835 0.0 
1.171 0.0285945 0.0 
0.859886 0.106804 0.0 
0.436813 -0.00868493 0.0 
0 0 0.0 
1.06196 0.0182376 0.0 
0.802187 0.0301351 0.0 
0.950263 0.0364602 0.0 
0.941334 0.0195822 0.0 
0.902976 0.0466248 0.0 
1.14234 0.0592915 0.0 
0.27658 -0.0107184 0.0 
1.12983 0.0124639 0.0 
0.940634 0.00453075 0.0 
0.807572 0.070337 0.0 
1.07788 0.0172045 0.0 
0.840098 0.00683401 0.0 
1.04883 0.0534388 0.0 
0.0726585 -0.00114366 0.0 
0.479687 0.0168604 0.0 
0.789112 0.00740919 0.0 
1.11232 0.0217396 0.0 
0.0867219 -0.00816929 0.0 
0 0 0.0 
1.14408 0.0711656 0.0 
1.10924 0.100838 0.0 
0.391337 0.0216615 0.0 
1.09716 0.0206354 0.0 
0.988905 0.0542531 0.0 
1.16694 0.0397681 0.0 
1.07033 0.0132879 0.0 
1.13437 0.0417824 0.0 
0.591207 -0.00548384 0.0 
0.567857 -0.00279089 0.0 
0.813935 0.00177271 0.0 
0.868007 0.0551844 0.0 
0.397701 0.00450191 0.0 
1.20998 0.0840888 0.0 
0.893549 0.0365621 0.0 
0.0263054 -0.00371678 0.0 
1.2037 0.0737032 0.0 
0.857001 -0.00101971 0.0 
0.956206 0.0326093 0.0 
1.0618 0.00951237 0.0 
1.05439 0.0968729 0.0 
1.0286 0.0612632 0.0 
0.915907 0.0567694 0.0 
1.06154 0.0804565 0.0 
0.842152 0.0275892 0.0 
0.659663 -0.00189501 0.0 
1.1997 0.0978198 0.0 
0.953343 0.0421635 0.0 
0.765519 0.00131707 0.0 
1.20234 0.0686468 0.0 
0 0 0.0 
0.457709 -0.00401408 0.0 
1.02898 0.0284487 0.0 
0.469111 -0.00203447 0.0 
0.904032 0.0338473 0.0 
0.963954 0.0185059 0.0 
1.12685 0.029944 0.0 
0.336567 -0.00849453 0.0 
0.821037 0.0113511 0.0 
1.11882 0.0426168 0.0 
1.1147 0.0522053 0.0 
1.04589 0.00959184 0.0 
0.986803 0.0186918 0.0 
0.344833 -0.00931167 0.0 
1.16495 0.105234 0.0 
1.0872 0.0210588 0.0 
0 0 0.0 
1.01867 0.0183995 0.0 
0.123015 -0.00744695 0.0 
0 0 0.0 
0.79402 0.0538595 0.0 
0.174101 -0.00235713 0.0 
0.323649 -0.00152979 0.0 
1.01201 -0.0187326 0.0 
1.07861 0.112862 0.0 
1.22003 0.185061 0.0 
1.03707 0.0262713 0.0 
1.1936 0.0541193 0.0 
0.514062 0.0375302 0.0 
1.1835 0.0698482 0.0 
0.192546 -0.00975351 0.0 
0.962596 0.0564421 0.0 
0.629407 0.0173421 0.0 
0 0 0.0 
0.0996279 -0.00182682 0.0 
0.0583744 -0.00140528 0.0 
0.221399 -0.00938905 0.0 
1.17609 0.0501026 0.0 
0.989631 0.0245418 0.0 
0.877659 0.00329823 0.0 
0.0766952 0.00405586 0.0 
0.450226 0.0227053 0.0 
1.07362 0.0257221 0.0 
0 0 0.0 
0.802793 0.0988042 0.0 
1.02551 0.00913501 0.0 
0.87328 0.0392802 0.0 
0.456052 0.0134072 0.0 
0.816332 0.0033512 0.0 
0.968917 0.142565 0.0 
0.576911 0.0167497 0.0 
1.10699 0.0246761 0.0 
0 0 0.0 
1.11944 0.0255253 0.0 
0.271879 0.00507993 0.0 
1.16226 0.0738071 0.0 
0.212242 -0.00236464 0.0 
0.63491 0.0368922 0.0 
0.4365 0.026873 0.0 
0 0 0.0 
0.0846774 -0.00462056 0.0 
0.236821 -0.00047367 0.0 
0.0636525 -0.00613027 0.0 
0.594547 0.0317855 0.0 
1.05714 0.149403 0.0 
1.2205 0.288944 0.0 
0.421968 -0.00658847 0.0 
0.584885 0.00746554 0.0 
0.127401 0.00359947 0.0 
1.08764 0.0896027 0.0 
0.996965 0.0118102 0.0 
0.246934 -0.0084329 0.0 
0.981496 0.00362681 0.0 
0.298524 0.000152049 0.0 
0.380014 0.012244 0.0 
1.00773 0.0472154 0.0 
1.09323 0.0172003 0.0 
0.15526 -0.00180614 0.0 
1.1732 0.0723428 0.0 
0.32766 0.0326593 0.0 
0.136036 -0.00673789 0.0 
0.267525 -0.00208794 0.0 
0 0 0.0 
0.833864 0.06867 0.0 
0.237739 -0.00725669 0.0 
0.418958 -0.00270542 0.0 
0.87027 0.00462347 0.0 
0.9182 0.00527506 0.0 
0.199314 0.00805483 0.0 
0 0 0.0 
0 0 0.0 
1.20755 0.106123 0.0 
0.963613 0.00507193 0.0 
1.01649 0.129207 0.0 
0.14803 -0.0055739 0.0 
1.13767 0.0759233 0.0 
0.0613211 0.00144085 0.0 
1.13438 0.109479 0.0 
1.04662 0.0219412 0.0 
0.773318 0.0479442 0.0 
0.963849 0.0983902 0.0 
0.194702 -0.00747447 0.0 
0.979365 0.00809879 0.0 
0.828 0.00851221 0.0 
0.347011 -0.00400434 0.0 
0.713508 0.0456944 0.0 
0.653542 0.0230554 0.0 
0.661638 0.0361701 0.0 
0.800453 0.0127511 0.0 
1.0949 0.0343334 0.0 
1.13825 0.0239818 0.0 
1.21331 0.196484 0.0 
0 0 0.0 
0 0 0.0 
0.265352 0.00340435 0.0 
0.19739 0.0108187 0.0 
0 0 0.0 
0.822423 0.0184698 0.0 
0.599517 0.0209416 0.0 
0.112151 -0.00386807 0.0 
1.12443 0.0215549 0.0 
0.873121 0.0272819 0.0 
0.103001 0.00290811 0.0 
0 0 0.0 
0.948061 -0.00303783 0.0 
0.790191 0.0202999 0.0 
0.0457575 -0.00207635 0.0 
0.026633 -0.00313217 0.0 
0 0 0.0 
0.289549 -0.00864323 0.0 
0.843526 0.048537 0.0 
1.02543 -0.0182778 0.0 
0.830039 0.00114331 0.0 
0.254884 -0.00771322 0.0 
1.17928 0.0609625 0.0 
1.0798 0.069727 0.0 
0.0278848 -0.00291675 0.0 
0.800866 -0.0113142 0.0 
0.525133 -0.00202628 0.0 
0.182458 -0.00385077 0.0 
0.17918 -0.00828798 0.0 
1.20596 0.120499 0.0 