<VTKFile type="UnstructuredGrid" version="0.1" byte_order="LittleEndian">
  <UnstructuredGrid>
    <Piece NumberOfPoints="16354" NumberOfCells="32157">
      <Points>
        <DataArray type = "Float64" NumberOfComponents="3" format="ascii">
1.24575 1.01039 0.0 
1.231 1.006 0.0 
1.2204 0.980673 0.0 
1.21584 0.988701 0.0 
1.24197 1.0081 0.0 
1.2403 1.01464 0.0 
1.1897 0.993837 0.0 
1.24671 1.01335 0.0 
1.20235 0.986386 0.0 
1.20332 0.998454 0.0 
1.22108 0.994186 0.0 
1.24809 1.01129 0.0 
1.2103 1.01017 0.0 
1.23717 1.01542 0.0 
1.23051 0.998448 0.0 
1.21167 0.994118 0.0 
1.23438 0.984412 0.0 
1.18863 0.986184 0.0 
1.17789 0.97805 0.0 
1.21476 0.99977 0.0 
1.19555 0.998141 0.0 
1.22931 1.00031 0.0 
1.18444 0.990128 0.0 
1.23107 0.984392 0.0 
1.2052 0.988273 0.0 
1.20903 0.980819 0.0 
1.23065 0.99745 0.0 
1.19114 0.978102 0.0 
1.22623 0.99379 0.0 
1.22158 0.977526 0.0 
1.15115 0.970413 0.0 
1.1989 0.966391 0.0 
1.20686 0.972508 0.0 
1.16858 0.974846 0.0 
1.21374 0.982128 0.0 
1.16255 0.978045 0.0 
1.1872 0.994107 0.0 
1.21012 0.995114 0.0 
1.19515 0.971898 0.0 
1.26389 0.977283 0.0 
1.18231 0.972594 0.0 
1.1732 0.992038 0.0 
1.22611 1.00873 0.0 
1.22735 0.960882 0.0 
1.23487 0.987191 0.0 
1.19582 0.986215 0.0 
1.20239 1.00708 0.0 
1.21852 0.978865 0.0 
1.17702 0.978884 0.0 
1.20249 0.992681 0.0 
1.2336 1.01519 0.0 
1.22045 0.986409 0.0 
1.21365 0.987513 0.0 
1.17784 0.988913 0.0 
1.21821 0.991514 0.0 
1.23655 1.01216 0.0 
1.22191 0.981262 0.0 
1.21538 0.975149 0.0 
1.19288 0.996433 0.0 
1.20916 0.994406 0.0 
1.23913 0.982228 0.0 
1.14133 0.970262 0.0 
1.20698 0.975277 0.0 
1.21459 0.9943 0.0 
1.22822 1.00415 0.0 
1.21516 0.978295 0.0 
1.20775 0.978002 0.0 
1.22547 1.00601 0.0 
1.17037 0.98163 0.0 
1.18623 0.97417 0.0 
1.17301 0.975653 0.0 
1.18709 0.973225 0.0 
1.20817 0.997515 0.0 
1.18848 0.977522 0.0 
1.19048 0.98986 0.0 
1.16948 0.970434 0.0 
1.21665 1.00113 0.0 
1.23969 1.01231 0.0 
1.21656 0.979809 0.0 
1.21301 1.00081 0.0 
1.19309 1.00244 0.0 
1.27563 0.965989 0.0 
1.18129 0.986802 0.0 
1.21396 0.985588 0.0 
1.22723 0.981978 0.0 
1.20479 0.977568 0.0 
1.17963 0.979843 0.0 
1.20815 0.998874 0.0 
1.17354 0.972881 0.0 
1.22029 0.985164 0.0 
1.21826 0.999007 0.0 
1.21782 0.986861 0.0 
1.19776 0.966968 0.0 
1.18114 0.979437 0.0 
1.19555 0.993406 0.0 
1.22529 0.980563 0.0 
1.18167 0.978922 0.0 
1.21849 0.989016 0.0 
1.19087 0.977635 0.0 
1.20018 0.983707 0.0 
1.21433 0.980248 0.0 
1.16711 0.974415 0.0 
1.17049 0.99409 0.0 
1.22799 1.00153 0.0 
1.23249 0.986443 0.0 
1.19014 0.979576 0.0 
1.17472 0.991625 0.0 
1.20373 0.991087 0.0 
1.1834 0.96802 0.0 
1.24242 1.01137 0.0 
1.21454 1.0025 0.0 
1.20423 0.995253 0.0 
1.19213 0.974948 0.0 
1.16659 0.97129 0.0 
1.16246 0.97718 0.0 
1.22193 1.00915 0.0 
1.20585 0.976281 0.0 
1.22035 0.996093 0.0 
1.21301 0.976257 0.0 
1.18262 0.976874 0.0 
1.18905 0.979021 0.0 
1.21166 0.991158 0.0 
1.23112 0.962276 0.0 
1.18557 0.979472 0.0 
1.17273 0.992896 0.0 
1.20665 0.967101 0.0 
1.22401 0.987921 0.0 
1.21722 1.00517 0.0 
1.22872 0.996783 0.0 
1.20984 0.975352 0.0 
1.17808 0.988355 0.0 
1.17286 0.978542 0.0 
1.21065 0.992088 0.0 
1.215 1.00433 0.0 
1.17842 0.969133 0.0 
1.16788 0.96843 0.0 
1.159 0.975385 0.0 
1.17512 0.9777 0.0 
1.2048 0.998652 0.0 
1.23575 0.981712 0.0 
1.20648 0.993 0.0 
1.20602 0.991056 0.0 
1.20263 0.983212 0.0 
1.19304 1.00165 0.0 
1.16743 0.968992 0.0 
1.21395 0.998531 0.0 
1.18417 1.00603 0.0 
1.17371 0.977046 0.0 
1.1864 0.985732 0.0 
1.21578 0.998924 0.0 
1.16366 0.975655 0.0 
1.21914 1.00341 0.0 
1.22434 0.989907 0.0 
1.14638 0.968742 0.0 
1.19349 0.997414 0.0 
1.1676 0.978208 0.0 
1.23209 0.981794 0.0 
1.20187 0.965904 0.0 
1.15054 0.968767 0.0 
1.20338 0.996546 0.0 
1.19405 0.972762 0.0 
1.20844 0.995944 0.0 
1.17725 1.01046 0.0 
1.19798 0.973637 0.0 
1.21895 0.997161 0.0 
1.1883 0.976207 0.0 
1.22526 1.00378 0.0 
1.19175 0.990974 0.0 
1.19466 0.987844 0.0 
1.18531 0.981109 0.0 
1.21566 0.998157 0.0 
1.17243 0.996204 0.0 
1.20685 0.964444 0.0 
1.20802 0.981299 0.0 
1.17178 1.0134 0.0 
1.22721 0.982907 0.0 
1.2346 0.982452 0.0 
1.16022 0.977244 0.0 
1.21577 0.981913 0.0 
1.22292 1.00275 0.0 
1.17554 1.012 0.0 
1.18202 0.969332 0.0 
1.1724 0.994225 0.0 
1.20181 0.99708 0.0 
1.1888 0.975723 0.0 
1.22389 1.00513 0.0 
1.2172 0.965613 0.0 
1.19671 0.992606 0.0 
1.22676 1.01012 0.0 
1.18179 0.974296 0.0 
1.22711 0.988225 0.0 
1.21175 0.976977 0.0 
1.17505 0.973523 0.0 
1.21158 0.989287 0.0 
1.20788 1.00196 0.0 
1.19026 0.991624 0.0 
1.18627 0.992708 0.0 
1.22382 0.984984 0.0 
1.18823 0.969573 0.0 
1.18291 0.987556 0.0 
1.17411 0.993624 0.0 
1.20618 0.998737 0.0 
1.239 1.00866 0.0 
1.17378 0.989705 0.0 
1.22058 0.99917 0.0 
1.21911 0.979964 0.0 
1.19556 0.969178 0.0 
1.21036 1.00187 0.0 
1.21021 0.982274 0.0 
1.17969 0.981792 0.0 
1.17885 0.972968 0.0 
1.17303 0.991035 0.0 
1.13702 0.972801 0.0 
1.23111 1.00363 0.0 
1.2101 0.997063 0.0 
1.2356 1.00906 0.0 
1.21436 0.983073 0.0 
1.18788 0.979464 0.0 
1.23284 0.983544 0.0 
1.19165 0.979044 0.0 
1.23759 0.987088 0.0 
1.20267 1.00033 0.0 
1.17696 0.992622 0.0 
1.2285 0.98434 0.0 
1.22755 0.981164 0.0 
1.17071 0.977943 0.0 
1.18848 0.987757 0.0 
1.17895 0.987197 0.0 
1.23533 0.986291 0.0 
1.2167 1.00195 0.0 
1.22439 0.995442 0.0 
1.1908 0.976228 0.0 
1.16797 0.969486 0.0 
1.18629 0.977445 0.0 
1.17586 0.989943 0.0 
1.15479 0.972061 0.0 
1.17103 0.989596 0.0 
1.20633 1.00044 0.0 
1.18995 0.968909 0.0 
1.22315 1.00163 0.0 
1.13607 0.973432 0.0 
1.20619 0.995518 0.0 
1.22814 1.01097 0.0 
1.21167 0.977731 0.0 
1.21252 0.998125 0.0 
1.22996 0.983603 0.0 
1.18398 0.977622 0.0 
1.16667 0.989156 0.0 
1.19585 0.971326 0.0 
1.19482 1.00828 0.0 
1.2225 0.996048 0.0 
1.22805 1.00632 0.0 
1.21374 0.984217 0.0 
1.13881 0.973563 0.0 
1.17874 0.979188 0.0 
1.21288 0.978793 0.0 
1.2258 0.979084 0.0 
1.22558 0.986444 0.0 
1.14341 0.970891 0.0 
1.22126 1.00191 0.0 
1.2129 0.972114 0.0 
1.17475 1.01024 0.0 
1.21758 0.998137 0.0 
1.22935 0.979881 0.0 
1.18673 0.995664 0.0 
1.17583 1.00099 0.0 
1.21785 0.994254 0.0 
1.23154 0.999385 0.0 
1.21803 0.97132 0.0 
1.18599 0.978202 0.0 
1.14489 0.972808 0.0 
1.22352 0.978412 0.0 
1.24228 1.00974 0.0 
1.18063 1.00027 0.0 
1.2041 0.967743 0.0 
1.20046 0.992668 0.0 
1.16887 0.98813 0.0 
1.19385 0.97427 0.0 
1.14105 0.972843 0.0 
1.23762 1.01314 0.0 
1.13724 0.973418 0.0 
1.20482 1.00606 0.0 
1.15089 0.974331 0.0 
1.20986 1.00423 0.0 
1.19371 1.00329 0.0 
1.18624 0.978985 0.0 
1.22243 0.964668 0.0 
1.20135 0.997714 0.0 
1.18212 0.99327 0.0 
1.21168 0.987706 0.0 
1.196 0.968142 0.0 
1.18415 0.971799 0.0 
1.20005 1.00535 0.0 
1.20812 0.983305 0.0 
1.22634 0.987221 0.0 
1.16938 0.97735 0.0 
1.1998 1.00346 0.0 
1.18383 0.993092 0.0 
1.22364 0.990948 0.0 
1.22322 0.98594 0.0 
1.1771 0.981929 0.0 
1.19926 0.994408 0.0 
1.14026 0.971002 0.0 
1.17676 1.002 0.0 
1.20067 0.965449 0.0 
1.20004 0.999703 0.0 
1.19334 0.985598 0.0 
1.23114 1.00481 0.0 
1.1818 0.999079 0.0 
1.19876 0.997141 0.0 
1.21464 1.00143 0.0 
1.17127 0.991205 0.0 
1.17914 0.967739 0.0 
1.18422 0.995272 0.0 
1.24541 0.962966 0.0 
1.18187 1.00986 0.0 
1.20949 0.980102 0.0 
1.17214 0.991617 0.0 
1.19524 1.00235 0.0 
1.21722 0.98466 0.0 
1.17895 0.96842 0.0 
1.17159 0.969185 0.0 
1.22751 0.974409 0.0 
1.20881 0.993577 0.0 
1.22176 0.997134 0.0 
1.17976 0.991141 0.0 
1.16906 0.990635 0.0 
1.22253 0.994956 0.0 
1.2054 0.999281 0.0 
1.17635 0.976793 0.0 
1.22539 0.988949 0.0 
1.22825 0.997929 0.0 
1.23284 0.98076 0.0 
1.20679 0.984763 0.0 
1.17454 0.970701 0.0 
1.17281 0.988508 0.0 
1.23401 1.01153 0.0 
1.2047 1.00514 0.0 
1.1994 1.00148 0.0 
1.19634 0.999788 0.0 
1.19168 1.00416 0.0 
1.21141 0.985396 0.0 
1.14112 0.97384 0.0 
1.2113 1.00821 0.0 
1.20466 0.965112 0.0 
1.17756 0.990755 0.0 
1.21231 0.995106 0.0 
1.17063 0.983816 0.0 
1.21387 0.977416 0.0 
1.19647 1.00156 0.0 
1.19498 0.970177 0.0 
1.19316 0.971583 0.0 
1.20665 0.965911 0.0 
1.22068 1.00669 0.0 
1.17021 0.980259 0.0 
1.23106 1.00239 0.0 
1.21301 0.992141 0.0 
1.243 1.01344 0.0 
1.20755 0.987758 0.0 
1.22331 0.97925 0.0 
1.22847 0.993119 0.0 
1.17448 0.988323 0.0 
1.22616 0.997251 0.0 
1.20984 1.00043 0.0 
1.17826 0.990023 0.0 
1.22818 1.00297 0.0 
1.21868 0.981455 0.0 
1.2361 1.00773 0.0 
1.21263 0.990234 0.0 
1.19452 0.968819 0.0 
1.19983 0.998046 0.0 
1.22953 0.982738 0.0 
1.18048 0.982853 0.0 
1.19083 0.988742 0.0 
1.219 1.00006 0.0 
1.21276 0.981531 0.0 
1.15276 0.968953 0.0 
1.17546 0.978449 0.0 
1.20039 0.997354 0.0 
1.13502 0.973435 0.0 
1.2062 1.00884 0.0 
1.22526 0.998564 0.0 
1.14593 0.97042 0.0 
1.18043 0.994902 0.0 
1.15796 0.970972 0.0 
1.21497 0.996811 0.0 
1.19226 0.975972 0.0 
1.16775 0.979065 0.0 
1.1897 0.974997 0.0 
1.19748 1.00212 0.0 
1.17548 0.976036 0.0 
1.20875 0.998337 0.0 
1.20429 0.992998 0.0 
1.19767 0.995193 0.0 
1.20923 1.00127 0.0 
1.18009 0.995689 0.0 
1.19808 1.00388 0.0 
1.20214 0.987604 0.0 
1.17447 0.979128 0.0 
1.21869 0.984201 0.0 
1.18097 0.97774 0.0 
1.14881 0.974221 0.0 
1.20775 0.994946 0.0 
1.19031 0.993002 0.0 
1.22541 1.00233 0.0 
1.19324 0.989431 0.0 
1.24201 1.01255 0.0 
1.21937 1.00442 0.0 
1.14275 0.972034 0.0 
1.17496 0.972026 0.0 
1.18903 1.00772 0.0 
1.2354 0.974409 0.0 
1.19285 0.993404 0.0 
1.23063 0.986957 0.0 
1.18514 1.00999 0.0 
1.20116 0.993689 0.0 
1.20878 0.992542 0.0 
1.17729 0.994817 0.0 
1.21658 0.995132 0.0 
1.20134 1.00007 0.0 
1.23907 1.00725 0.0 
1.19969 0.987349 0.0 
1.22536 0.991683 0.0 
1.20741 0.986671 0.0 
1.18187 1.00772 0.0 
1.15899 0.969281 0.0 
1.15785 0.971517 0.0 
1.20038 0.969874 0.0 
1.22097 0.99115 0.0 
1.22212 0.981885 0.0 
1.2192 0.99344 0.0 
1.20454 0.992068 0.0 
1.2323 1.01361 0.0 
1.19508 1.00114 0.0 
1.2118 0.999036 0.0 
1.21862 1.00758 0.0 
1.17892 0.987879 0.0 
1.18579 0.987765 0.0 
1.14442 0.972275 0.0 
1.22066 0.992014 0.0 
1.15005 0.971044 0.0 
1.19441 0.991056 0.0 
1.21715 0.98575 0.0 
1.24029 0.98305 0.0 
1.18949 0.976871 0.0 
1.2047 1.01166 0.0 
1.2037 0.982591 0.0 
1.20157 1.00185 0.0 
1.18372 0.98678 0.0 
1.26938 0.966329 0.0 
1.24131 0.994904 0.0 
1.19763 0.997783 0.0 
[...]
<PointData>
  <DataArray type = "Float64" Name="Vitesse" NumberOfComponents="3" format="ascii">
0.394578 -0.128338 0.0 
0.247654 -0.0649297 0.0 
0.0362021 0.0708289 0.0 
-0.0528676 0.0879769 0.0 
0.326882 -0.114495 0.0 
0.508816 -0.122923 0.0 
-0.115734 0.220208 0.0 
0.480696 -0.133546 0.0 
-0.0562703 0.176126 0.0 
-0.0165565 0.135743 0.0 
0.00224928 0.0328221 0.0 
0.422381 -0.133826 0.0 
0.24948 0.0269281 0.0 
0.52446 -0.117153 0.0 
0.092162 -0.0404154 0.0 
-0.033153 0.0992069 0.0 
0.0153207 -0.0174085 0.0 
0.0213322 0.201075 0.0 
0.528168 0.11561 0.0 
0.0593344 0.0544144 0.0 
-0.0639475 0.181153 0.0 
0.12162 -0.0388887 0.0 
-0.0700263 0.219422 0.0 
0.00351862 0.00095023 0.0 
-0.0764473 0.161235 0.0 
0.0692883 0.124874 0.0 
0.0765505 -0.0385081 0.0 
0.39645 0.120633 0.0 
0.0147693 -0.000192492 0.0 
0.147051 0.058709 0.0 
1.04457 -0.0545603 0.0 
0.897765 0.0210848 0.0 
0.572111 0.0504292 0.0 
0.772837 0.0676023 0.0 
0.00813601 0.10829 0.0 
0.633004 0.0584716 0.0 
-0.121529 0.223531 0.0 
-0.0284753 0.106024 0.0 
0.703517 0.0585029 0.0 
0.28459 -0.0676875 0.0 
0.771304 0.0720837 0.0 
-0.0828611 0.187148 0.0 
0.296681 -0.050324 0.0 
0.964716 -0.0162582 0.0 
0.00770202 -0.0303611 0.0 
-0.0269291 0.19647 0.0 
0.130354 0.0889753 0.0 
0.100624 0.0761278 0.0 
0.488808 0.121282 0.0 
-0.0806291 0.167545 0.0 
0.506504 -0.106227 0.0 
-0.038444 0.0620376 0.0 
-0.0583828 0.10656 0.0 
-0.00540012 0.197266 0.0 
-0.0326888 0.0619648 0.0 
0.426334 -0.106283 0.0 
0.0229022 0.0621346 0.0 
0.321914 0.0620682 0.0 
-0.095197 0.201794 0.0 
-0.0402678 0.11565 0.0 
0.0543142 -0.0321396 0.0 
1.06319 -0.12381 0.0 
0.395367 0.0774226 0.0 
-0.0199823 0.0777779 0.0 
0.19639 -0.0445711 0.0 
0.141695 0.0866519 0.0 
0.218214 0.104811 0.0 
0.228452 -0.0362876 0.0 
0.3841 0.120667 0.0 
0.663034 0.0844792 0.0 
0.698037 0.0866927 0.0 
0.703243 0.0759711 0.0 
-0.00595585 0.108859 0.0 
0.457928 0.115355 0.0 
-0.0837599 0.219935 0.0 
0.947559 0.039311 0.0 
0.091616 0.0363067 0.0 
0.438373 -0.116098 0.0 
0.0708582 0.0878431 0.0 
0.0698223 0.0613238 0.0 
-0.0192597 0.16417 0.0 
0.825956 -0.00617535 0.0 
0.0521693 0.195108 0.0 
-0.0476918 0.107938 0.0 
0.017578 0.0302996 0.0 
0.27497 0.105001 0.0 
0.412529 0.13369 0.0 
0.0142772 0.102501 0.0 
0.827093 0.0664333 0.0 
-0.0328914 0.0662749 0.0 
0.0607114 0.0343824 0.0 
-0.0465218 0.0790188 0.0 
0.885465 0.0249762 0.0 
0.421479 0.131677 0.0 
-0.100647 0.202759 0.0 
0.0409222 0.0436614 0.0 
0.445494 0.127352 0.0 
-0.04422 0.0681274 0.0 
0.426496 0.115736 0.0 
0.0212254 0.17134 0.0 
0.0631832 0.0997808 0.0 
0.80475 0.0591117 0.0 
-0.126193 0.172824 0.0 
0.140806 -0.0349913 0.0 
0.000173965 -0.0144697 0.0 
0.322605 0.136957 0.0 
-0.0754851 0.194219 0.0 
-0.0826331 0.164698 0.0 
0.929833 0.0409655 0.0 
0.416967 -0.121474 0.0 
0.108268 0.043671 0.0 
-0.0524859 0.145591 0.0 
0.56787 0.08767 0.0 
0.938497 0.0351807 0.0 
0.684564 0.0537772 0.0 
0.28889 -0.030675 0.0 
0.343217 0.0896558 0.0 
0.0236928 0.0311857 0.0 
0.272064 0.0772672 0.0 
0.55096 0.108866 0.0 
0.365961 0.130957 0.0 
-0.0573081 0.110147 0.0 
0.93088 -0.0161932 0.0 
0.376574 0.135121 0.0 
-0.103166 0.186164 0.0 
0.839629 0.0153707 0.0 
-0.0290682 0.0334765 0.0 
0.174725 0.0147765 0.0 
0.0609418 -0.0250759 0.0 
0.36065 0.0742089 0.0 
0.0132665 0.195238 0.0 
0.541148 0.10881 0.0 
-0.0548357 0.114064 0.0 
0.146778 0.0321895 0.0 
0.928479 0.0460994 0.0 
1.01092 0.0222912 0.0 
0.805131 0.0228262 0.0 
0.570558 0.107691 0.0 
-0.00595194 0.125366 0.0 
0.047728 -0.0141315 0.0 
-0.0636617 0.139798 0.0 
-0.076092 0.149654 0.0 
0.0219439 0.161279 0.0 
-0.0318486 0.169887 0.0 
1.00035 0.0238854 0.0 
0.0353277 0.0651819 0.0 
-0.0285872 0.157218 0.0 
0.617795 0.0990686 0.0 
0.0562755 0.195935 0.0 
0.0494091 0.0511988 0.0 
0.764082 0.0518585 0.0 
0.146598 0.010942 0.0 
-0.0222437 0.0248614 0.0 
1.08574 -0.0904036 0.0 
-0.0835014 0.194552 0.0 
0.595608 0.0861697 0.0 
0.0336392 0.00406756 0.0 
0.899561 0.0157895 0.0 
1.07883 -0.0632293 0.0 
-0.0416653 0.144978 0.0 
0.668883 0.0664875 0.0 
-0.025632 0.114147 0.0 
-0.00329865 0.116837 0.0 
0.587068 0.0702871 0.0 
0.0339797 0.0367926 0.0 
0.53433 0.10225 0.0 
0.178265 -0.0268866 0.0 
-0.0991239 0.219045 0.0 
-0.0590071 0.206258 0.0 
0.288607 0.151623 0.0 
0.0365444 0.0551677 0.0 
-0.158062 0.18468 0.0 
0.921785 0.00539597 0.0 
0.0565532 0.131594 0.0 
0.019687 0.0809984 0.0 
0.00471688 0.0281432 0.0 
0.0336701 -0.0112482 0.0 
0.69071 0.0394721 0.0 
0.00955896 0.0967049 0.0 
0.148202 -0.00944073 0.0 
0.016095 0.101039 0.0 
0.899309 0.0488789 0.0 
-0.129882 0.185282 0.0 
-0.0429167 0.152288 0.0 
0.556649 0.0973101 0.0 
0.202481 -0.0240889 0.0 
0.854514 -0.00110065 0.0 
-0.0989013 0.199701 0.0 
0.335169 -0.0592947 0.0 
0.694754 0.0859086 0.0 
-0.0183841 0.0121826 0.0 
0.239802 0.0866907 0.0 
0.786759 0.0737237 0.0 
-0.0642621 0.116501 0.0 
0.0650293 0.088453 0.0 
-0.104473 0.221977 0.0 
-0.114009 0.225208 0.0 
-0.0227776 0.043599 0.0 
0.850994 0.0484702 0.0 
0.0129434 0.203706 0.0 
-0.119868 0.194697 0.0 
0.00234046 0.116022 0.0 
0.335816 -0.105641 0.0 
-0.0143478 0.182806 0.0 
0.0723049 0.0185623 0.0 
0.0583304 0.0767571 0.0 
0.820429 0.0392462 0.0 
0.076272 0.0732996 0.0 
0.0141076 0.127078 0.0 
0.304662 0.150993 0.0 
0.781856 0.0738733 0.0 
-0.054204 0.183442 0.0 
1.00355 -0.153969 0.0 
0.194023 -0.0583076 0.0 
-0.00347214 0.0978173 0.0 
0.337933 -0.0941032 0.0 
-0.0134769 0.106047 0.0 
0.353273 0.135593 0.0 
0.0164165 -0.00597784 0.0 
0.336228 0.13083 0.0 
0.0176439 -0.0445224 0.0 
0.00846133 0.129356 0.0 
-0.103811 0.206583 0.0 
-0.00461042 0.0161933 0.0 
0.0318065 0.0303574 0.0 
0.590313 0.0972266 0.0 
-0.0281807 0.211728 0.0 
0.0519919 0.191041 0.0 
0.0106698 -0.029649 0.0 
0.107293 0.032455 0.0 
0.0288175 0.00643904 0.0 
0.508569 0.101186 0.0 
0.984753 0.0288814 0.0 
0.484433 0.11494 0.0 
-0.0302928 0.194013 0.0 
0.981186 -0.0226612 0.0 
0.000345727 0.166345 0.0 
0.0303034 0.106207 0.0 
0.863951 0.0431657 0.0 
0.126688 -0.00670352 0.0 
0.984949 -0.16057 0.0 
-0.0407143 0.131238 0.0 
0.363354 -0.0691568 0.0 
0.197142 0.0933875 0.0 
0.0228187 0.0765665 0.0 
0.00576483 0.00998512 0.0 
0.496798 0.116413 0.0 
0.0326173 0.132223 0.0 
0.725783 0.0534313 0.0 
0.0995256 0.114021 0.0 
0.0305064 0.0169412 0.0 
0.245247 -0.0510331 0.0 
-0.0322784 0.110071 0.0 
0.977884 -0.140132 0.0 
0.457078 0.126651 0.0 
0.132438 0.0980946 0.0 
0.0810588 0.0418667 0.0 
-0.0232156 0.0278665 0.0 
1.04938 -0.108936 0.0 
0.125085 0.00396695 0.0 
0.545246 0.0395514 0.0 
-0.0281187 0.113556 0.0 
0.0438826 0.0423316 0.0 
0.0636175 0.0232286 0.0 
-0.124061 0.220059 0.0 
-0.152322 0.183118 0.0 
-0.00831639 0.0549481 0.0 
0.111024 -0.0487404 0.0 
0.556984 0.0267329 0.0 
0.444494 0.12248 0.0 
0.991721 -0.0942916 0.0 
0.105346 0.0525648 0.0 
0.371264 -0.11828 0.0 
-0.130544 0.198426 0.0 
0.828674 0.0213205 0.0 
-0.0875872 0.179807 0.0 
0.0666996 0.145527 0.0 
0.589658 0.0798218 0.0 
0.998707 -0.124135 0.0 
0.45747 -0.112204 0.0 
0.984843 -0.152103 0.0 
0.125437 0.0826132 0.0 
0.90095 -0.0408979 0.0 
0.118593 0.064082 0.0 
-0.000967317 0.155658 0.0 
0.397478 0.130409 0.0 
0.874486 -0.00779207 0.0 
-0.0371923 0.15183 0.0 
-0.119306 0.221886 0.0 
-0.0632647 0.119767 0.0 
0.856187 0.0328609 0.0 
0.791876 0.0659241 0.0 
0.0805135 0.112588 0.0 
-0.00646547 0.140423 0.0 
-0.0217676 0.0204524 0.0 
0.633007 0.0882828 0.0 
0.043978 0.126315 0.0 
-0.117809 0.224322 0.0 
-0.0185677 0.026109 0.0 
-0.0289283 0.0447913 0.0 
0.31893 0.146438 0.0 
-0.0818724 0.180155 0.0 
1.04838 -0.131167 0.0 
-0.139103 0.180187 0.0 
0.916221 0.0153749 0.0 
-0.0164487 0.148314 0.0 
0.00734356 0.196178 0.0 
0.220433 -0.0619935 0.0 
-0.132287 0.206031 0.0 
-0.0581189 0.170062 0.0 
0.088424 0.047912 0.0 
-0.0543155 0.172936 0.0 
0.961892 0.0380434 0.0 
-0.131032 0.22201 0.0 
0.902105 -0.0172374 0.0 
0.0235593 0.12559 0.0 
0.0956469 0.118699 0.0 
-0.0688694 0.179792 0.0 
-0.0055933 0.156067 0.0 
-0.0353181 0.0878696 0.0 
0.945417 0.0420133 0.0 
0.970144 0.0367374 0.0 
0.293433 0.0262522 0.0 
-0.0498168 0.121379 0.0 
0.043703 0.0180606 0.0 
-0.0779121 0.212737 0.0 
-0.0298059 0.155812 0.0 
0.0163095 0.0203313 0.0 
0.00671832 0.118208 0.0 
0.610468 0.10249 0.0 
-0.0224408 0.020968 0.0 
0.0771095 -0.0256612 0.0 
0.0530652 0.00332929 0.0 
-0.0355099 0.150973 0.0 
0.904196 0.0521522 0.0 
0.0339412 0.172521 0.0 
0.400717 -0.0955244 0.0 
0.106533 0.0890529 0.0 
0.00750462 0.141144 0.0 
-0.037615 0.167532 0.0 
-0.00112231 0.156505 0.0 
-0.0477702 0.124399 0.0 
0.961291 -0.121395 0.0 
0.210432 0.0333025 0.0 
0.911156 0.00982071 0.0 
-0.060577 0.204032 0.0 
-0.0195387 0.0907398 0.0 
0.26349 0.134718 0.0 
0.196441 0.0848067 0.0 
-0.0101322 0.155519 0.0 
0.783732 0.0462569 0.0 
0.733997 0.0580134 0.0 
0.881009 0.0105225 0.0 
0.224381 -0.0123944 0.0 
0.461879 0.110962 0.0 
0.16758 -0.0545591 0.0 
-0.0460345 0.0970684 0.0 
0.478309 -0.126626 0.0 
-0.0705917 0.146965 0.0 
0.0771145 0.0542695 0.0 
0.0148323 -0.0124369 0.0 
0.0331125 0.180269 0.0 
0.0600712 -0.0107224 0.0 
0.0480209 0.0838127 0.0 
-0.0426259 0.203921 0.0 
0.170855 -0.040548 0.0 
0.0172921 0.0807105 0.0 
0.304693 -0.0925388 0.0 
-0.058459 0.106192 0.0 
0.840328 0.0382634 0.0 
-0.0409577 0.158995 0.0 
0.0136245 0.0151399 0.0 
0.241619 0.161866 0.0 
-0.0634049 0.215689 0.0 
0.0817136 0.0254757 0.0 
0.0267577 0.112022 0.0 
1.06987 -0.0484276 0.0 
0.526024 0.114499 0.0 
-0.046864 0.159465 0.0 
0.985152 -0.16806 0.0 
0.192872 0.0573034 0.0 
0.078182 -0.00929053 0.0 
1.05686 -0.0913573 0.0 
-0.136068 0.217866 0.0 
1.00024 -0.00802895 0.0 
0.0135862 0.0653478 0.0 
0.508454 0.0976159 0.0 
0.545348 0.0921311 0.0 
0.588121 0.0899143 0.0 
0.00566265 0.146674 0.0 
0.658267 0.0947959 0.0 
0.00891198 0.101083 0.0 
-0.0719476 0.154592 0.0 
-0.0827893 0.185587 0.0 
0.0596728 0.0835733 0.0 
-0.141467 0.215899 0.0 
0.0401084 0.132153 0.0 
-0.0721467 0.178778 0.0 
0.495791 0.117609 0.0 
-0.0281221 0.0789368 0.0 
0.518156 0.116075 0.0 
0.91564 -0.0577846 0.0 
-0.0402579 0.123179 0.0 
-0.112612 0.220487 0.0 
0.148573 -0.0226583 0.0 
-0.0824465 0.213862 0.0 
0.450222 -0.122606 0.0 
0.168463 0.00527317 0.0 
1.02112 -0.112417 0.0 
0.851978 0.0623644 0.0 
0.0421231 0.135858 0.0 
0.278193 0.00313633 0.0 
-0.108574 0.213373 0.0 
-0.00703697 -0.00539782 0.0 
0.0541413 0.123222 0.0 
-0.0794218 0.17185 0.0 
-0.0585276 0.125529 0.0 
-0.138111 0.20885 0.0 
-0.00260729 0.0606723 0.0 
-0.00330151 0.138797 0.0 
0.299401 -0.102875 0.0 
-0.0649793 0.189191 0.0 
-0.0077105 0.0122587 0.0 
-0.0623529 0.148696 0.0 
-0.0177122 0.143586 0.0 
1.03881 -0.0104104 0.0 
0.983843 -0.00603673 0.0 
0.7616 0.0379517 0.0 
-0.0260773 0.0437129 0.0 
0.0102773 0.060472 0.0 
-0.0123495 0.0483927 0.0 
-0.0766907 0.156381 0.0 
0.454656 -0.0963705 0.0 
-0.0257904 0.164912 0.0 
0.0340273 0.0774287 0.0 
0.235144 -0.00484602 0.0 
0.0256988 0.195248 0.0 
-0.0119925 0.209456 0.0 
1.01094 -0.0992194 0.0 
-0.0205686 0.0430009 0.0 
1.03215 -0.060193 0.0 
-0.0995678 0.211758 0.0 
-0.0432974 0.0861595 0.0 
0.0502697 -0.0410864 0.0 
0.484822 0.108311 0.0 
0.247325 0.0456265 0.0 
0.0366648 0.153937 0.0 
0.0272057 0.126934 0.0 
0.0356577 0.199769 0.0 
0.796635 -0.0121224 0.0 
0.0698737 -0.0872953 0.0 
-0.0565634 0.172721 0.0 
0.241351 -0.0885951 0.0 
0.237592 0.00810462 0.0 
-0.0124541 0.206491 0.0 
-0.0596202 0.105439 0.0 
-0.0604943 0.15625 0.0 
0.840814 0.0575059 0.0 
-0.0882741 0.200358 0.0 
-0.0522431 0.131371 0.0 
0.286759 0.149699 0.0 
0.290903 -0.0170547 0.0 
0.126105 -0.0174138 0.0 
0.100936 0.187391 0.0 
0.988699 -0.111542 0.0 
0.709001 0.0645728 0.0 
0.338395 0.0183647 0.0 
-0.0749683 0.185902 0.0 
0.0892942 0.0136653 0.0 
-0.0881104 0.223056 0.0 
0.89212 0.0330019 0.0 
-0.0230315 0.156473 0.0 
-0.0936228 0.205116 0.0 
0.0454619 -0.023606 0.0 
0.0164981 0.106609 0.0 
0.921247 0.0457967 0.0 
0.580444 0.0739742 0.0 
-0.149232 0.209124 0.0 
0.342172 0.141532 0.0 
1.00081 0.0295281 0.0 
-0.0305601 0.0433589 0.0 
0.233361 0.150053 0.0 
0.0809292 -0.00738313 0.0 
-0.0509952 0.142714 0.0 
0.62517 0.0733829 0.0 
-0.0404479 0.0591558 0.0 
0.272521 -0.0903765 0.0 
0.592428 0.0943131 0.0 
0.304149 -0.0681818 0.0 
0.27202 0.00732605 0.0 
0.701504 0.08123 0.0 
-0.04331 0.106516 0.0 
0.295249 0.133915 0.0 
0.144659 0.092974 0.0 
0.0201008 0.136042 0.0 
0.891925 0.00545952 0.0 
-0.047277 0.0872671 0.0 
0.927865 -0.0100382 0.0 
0.0424344 0.188554 0.0 
0.479461 -0.105631 0.0 
0.00213046 -0.0132319 0.0 
1.00573 -0.0516537 0.0 
0.0257985 0.139727 0.0 
0.872292 0.0583726 0.0 
-0.0324858 0.0417092 0.0 
0.358778 -0.0415393 0.0 
1.09356 -0.0824075 0.0 
-0.013334 0.0388757 0.0 
-0.0050536 0.124508 0.0 
-0.00387626 0.0849899 0.0 
-0.0952667 0.219628 0.0 
0.47444 -0.119015 0.0 
0.243261 0.0189305 0.0 
0.0483162 0.0984094 0.0 
0.299727 0.147064 0.0 
0.222905 -0.0518315 0.0 
0.0708672 0.193052 0.0 
-0.0568964 0.165116 0.0 
0.219463 -0.0753498 0.0 
0.0664018 0.138295 0.0 
1.05649 -0.0495787 0.0 
-0.0905418 0.188295 0.0 
0.736739 0.0615039 0.0 
0.900542 0.0317369 0.0 
0.230118 0.0462883 0.0 
0.317063 0.125404 0.0 
0.396739 -0.103818 0.0 
-0.10159 0.224648 0.0 
0.320603 0.0953273 0.0 
-0.0667608 0.125049 0.0 
0.013856 0.051265 0.0 
0.00909625 0.134559 0.0 
-0.0369957 0.172913 0.0 
-0.123904 0.224331 0.0 
-0.0313772 0.133484 0.0 
-0.00596474 0.0585153 0.0 
0.231489 0.149594 0.0 
0.947897 -0.0267822 0.0 
-0.0580941 0.180433 0.0 
0.137105 0.00589781 0.0 
0.0220524 0.121818 0.0 
0.196394 -0.00691169 0.0 
-0.0734653 0.161009 0.0 
0.0018492 0.00647948 0.0 
0.3697 -0.0944289 0.0 
-0.0299924 0.125682 0.0 
-0.0491088 0.216335 0.0 
1.05332 -0.0737153 0.0 
0.573014 0.108257 0.0 
0.455314 -0.105375 0.0 
-0.0546563 0.122028 0.0 
0.839196 0.0636064 0.0 
0.161826 0.0450479 0.0 
0.651264 0.0789728 0.0 
-0.0665114 0.211662 0.0 
-0.0237179 0.160642 0.0 
0.236103 0.159312 0.0 
-0.117912 0.204874 0.0 
-0.0959912 0.22361 0.0 
0.966684 -0.00418919 0.0 
-0.0118468 0.0260237 0.0 
0.753471 0.0773703 0.0 
0.180012 0.0537574 0.0 
0.839923 0.0509417 0.0 
-0.0439164 0.175463 0.0 
-0.0650366 0.135455 0.0 
0.130685 0.033163 0.0 
0.00127485 -0.0222377 0.0 
-0.017676 0.124215 0.0 
0.0614377 0.112445 0.0 
-0.0534837 0.0913839 0.0 
0.0783247 0.038963 0.0 
0.429427 -0.0964124 0.0 
0.22258 0.0381511 0.0 
-0.00924044 0.150557 0.0 
0.373088 0.126434 0.0 
-0.129362 0.202939 0.0 
-0.0662446 0.130224 0.0 
-0.0223476 0.208833 0.0 
0.363391 0.139361 0.0 
0.0185808 0.147244 0.0 
-0.0871643 0.18243 0.0 
0.0720974 0.091895 0.0 
-0.00398611 -0.013552 0.0 
0.246084 -0.0769632 0.0 
0.165226 0.0328853 0.0 
0.254781 0.150327 0.0 
0.107681 -0.0188414 0.0 
0.121798 0.105022 0.0 
0.064035 0.124067 0.0 
0.322649 -0.0459486 0.0 
0.0966876 -0.0286054 0.0 
-0.0592428 0.13398 0.0 
0.264527 0.100181 0.0 
0.0340632 0.13643 0.0 
0.107784 0.175271 0.0 
0.210482 0.0158404 0.0 
0.0405873 0.103376 0.0 
-0.00559073 0.127049 0.0 
0.703527 0.0720762 0.0 
-0.00712909 -0.00372547 0.0 
0.460859 -0.0303449 0.0 
0.275414 -0.0790429 0.0 
0.0460051 0.194411 0.0 
0.668083 0.0671832 0.0 
0.333539 -0.0712576 0.0 
0.00200667 -0.0200259 0.0 
0.255237 -0.0412897 0.0 
-0.0731292 0.173319 0.0 
0.262368 -0.0121928 0.0 
0.98238 -0.0793427 0.0 
0.253475 0.159268 0.0 
-0.0457619 0.161994 0.0 
1.01853 -0.0632322 0.0 
0.095502 0.113687 0.0 
0.116711 0.106847 0.0 
0.0578601 0.00216579 0.0 
0.257992 -0.027778 0.0 
1.02288 -0.0804104 0.0 
-0.028088 0.149985 0.0 
0.0503263 0.145506 0.0 
-0.0389332 0.213838 0.0 
0.86701 -0.0407957 0.0 
0.481161 -0.0971724 0.0 
0.788745 0.0499285 0.0 
0.146939 0.095167 0.0 
-0.0957338 0.173776 0.0 
0.0650031 0.00951055 0.0 
-0.0531546 0.139775 0.0 
0.0866805 -0.090959 0.0 
-0.0942404 0.222989 0.0 
-0.00298823 0.0828525 0.0 
-0.0597353 0.11993 0.0 
0.873998 -0.0135447 0.0 
0.190084 0.15641 0.0 
0.0201334 0.118509 0.0 
0.0140303 0.0125933 0.0 
-0.146623 0.211456 0.0 
0.346801 0.138573 0.0 
0.103265 -0.00869515 0.0 
0.519269 0.0930489 0.0 
-0.033125 0.156285 0.0 
0.362581 -0.0580632 0.0 
-0.0232789 0.0967454 0.0 
-0.0206314 0.120949 0.0 
-0.0687341 0.140429 0.0 
1.06558 -0.103317 0.0 
0.80631 0.0435319 0.0 
0.813082 0.0595021 0.0 
-0.00444276 0.0423468 0.0 
0.327085 0.0784146 0.0 
0.00525466 -0.029211 0.0 
0.126607 0.0733249 0.0 
0.0530608 0.0265906 0.0 
-0.0706834 0.166898 0.0 
-0.0132523 0.00363697 0.0 
1.07895 -0.0840054 0.0 
0.262146 0.147684 0.0 
0.990138 -0.0585304 0.0 
0.0617291 0.0399959 0.0 
-0.0221063 0.127152 0.0 
0.267027 -0.000836071 0.0 
-0.0870624 0.175071 0.0 
-0.0165208 0.140972 0.0 
0.0644752 0.042336 0.0 
0.0125193 0.0913304 0.0 
-0.146393 0.207348 0.0 
0.0804791 0.106753 0.0 
-0.0790234 0.157504 0.0 
0.206665 -0.0281233 0.0 
0.837306 0.044372 0.0 
-0.0339394 0.0873426 0.0 
-0.0678957 0.164367 0.0 
0.127446 0.0266324 0.0 
-0.108186 0.223445 0.0 
-0.0852796 0.176746 0.0 
-0.0977576 0.198415 0.0 
-0.0732365 0.140571 0.0 
0.0339857 0.095529 0.0 
0.0294636 -0.0192851 0.0 
-0.0227123 0.149245 0.0 
1.04045 -0.0754679 0.0 
0.706401 -0.00313636 0.0 
-0.0844694 0.188353 0.0 
0.15398 0.0649311 0.0 
-0.0941096 0.190525 0.0 
0.0413052 0.101545 0.0 
0.145645 -0.0511867 0.0 
0.0946814 0.112224 0.0 
-0.0662374 0.166677 0.0 
0.337382 -0.0821656 0.0 
0.0466806 0.107478 0.0 
0.0569794 0.107592 0.0 
0.00701274 0.0817157 0.0 
-0.0669803 0.170846 0.0 
-0.0305936 0.127534 0.0 
-0.117989 0.210955 0.0 
0.003601 0.180838 0.0 
-0.027937 0.141998 0.0 
-0.042487 0.2103 0.0 
0.868439 0.0171445 0.0 
0.00155869 0.0183619 0.0 
0.341245 -0.0441703 0.0 
0.103823 0.0208118 0.0 
-0.0655263 0.15617 0.0 
1.01718 -0.0233646 0.0 
0.00331733 0.206093 0.0 
-0.126363 0.223243 0.0 
-0.00791019 0.0981478 0.0 
0.239142 0.141293 0.0 
-0.0997735 0.204966 0.0 
-0.0449671 0.188928 0.0 
0.106832 -0.00323831 0.0 
-0.0957216 0.221873 0.0 
-0.0635848 0.147325 0.0 
0.750645 0.0799248 0.0 
-0.0273048 0.20373 0.0 
-0.0817455 0.220194 0.0 
-0.091918 0.192432 0.0 
-0.0246049 0.140877 0.0 
0.0836233 0.0309796 0.0 
-0.0777657 0.22159 0.0 
-0.0517456 0.198576 0.0 
-0.0872892 0.17584 0.0 
-0.0313797 0.0415316 0.0 
-0.0678563 0.199436 0.0 
1.01469 0.00872258 0.0 
0.132616 0.0698649 0.0 
0.729883 0.0204991 0.0 
0.297038 0.142134 0.0 
-0.018437 0.162379 0.0 
0.0447993 0.0853553 0.0 
0.122093 0.0459087 0.0 
0.188953 0.0195333 0.0 
0.0135274 0.148187 0.0 
0.979936 -0.0168119 0.0 
0.182066 0.171242 0.0 
0.81929 0.0352333 0.0 
0.0207616 0.106981 0.0 
0.22801 -0.000808219 0.0 
-0.0725195 0.179918 0.0 
-0.0157581 0.0126293 0.0 
-0.142964 0.208984 0.0 
-0.0279496 0.146723 0.0 
0.404361 0.126943 0.0 
-0.012601 0.0947501 0.0 
-0.00406062 0.0756321 0.0 
0.316356 0.144139 0.0 
0.085259 0.185157 0.0 
0.225825 0.163337 0.0 
-0.0403981 0.115862 0.0 
-0.00167583 0.114558 0.0 
0.911257 0.0420929 0.0 
0.408223 -0.0876763 0.0 
-0.0828414 0.164847 0.0 
0.000451667 -0.0216951 0.0 
0.402773 0.114504 0.0 
0.880949 0.0500731 0.0 
-0.00479991 0.130588 0.0 
0.0359041 0.137803 0.0 
0.772462 0.0601974 0.0 
-0.0164562 0.110507 0.0 
0.0589452 -0.0221665 0.0 
0.00503332 0.151637 0.0 
-0.0295305 0.15694 0.0 
-0.0130501 0.00302087 0.0 
0.0290232 0.0954997 0.0 
0.993864 0.0165835 0.0 
0.200842 0.0735055 0.0 
-0.0177816 0.0808902 0.0 
0.955135 -0.149541 0.0 
0.18338 0.0387974 0.0 
-0.0918584 0.208834 0.0 
0.0528249 0.111148 0.0 
0.508571 0.107679 0.0 
0.241928 0.157488 0.0 
0.0438984 0.00374701 0.0 
0.138039 0.0578476 0.0 
0.492541 -0.113436 0.0 
-0.0442284 0.166022 0.0 
0.106385 0.184209 0.0 
0.705861 -0.0164082 0.0 
-0.0529119 0.100665 0.0 
0.0218685 0.0471257 0.0 
-0.00515872 0.157532 0.0 
0.286292 0.142107 0.0 
-0.0409123 0.0670648 0.0 
0.161328 0.112133 0.0 
-0.0992162 0.202381 0.0 
-0.019452 0.210448 0.0 
-0.0296701 0.18141 0.0 
0.0166625 0.120662 0.0 
-0.0413825 0.138654 0.0 
-0.0815317 0.173592 0.0 
0.964821 -0.168164 0.0 
-0.110252 0.213863 0.0 
0.372494 -0.0827155 0.0 
0.442686 -0.129327 0.0 
0.930374 0.0259091 0.0 
0.212062 -0.0394289 0.0 
0.00204089 -0.00409619 0.0 
-0.0798472 0.20695 0.0 
-0.0871466 0.196725 0.0 
0.0205421 0.144358 0.0 
0.058257 0.122162 0.0 
-0.0366796 0.163886 0.0 
0.332568 0.14549 0.0 
-0.00306725 0.110952 0.0 
-0.0121395 0.141951 0.0 
0.00913045 0.148529 0.0 
0.0278998 0.0166588 0.0 
0.143992 0.174656 0.0 
0.237284 0.0806256 0.0 