<VTKFile type="UnstructuredGrid" version="0.1" byte_order="LittleEndian">
  <UnstructuredGrid>
    <Piece NumberOfPoints="16278" NumberOfCells="32054">
      <Points>
        <DataArray type = "Float64" NumberOfComponents="3" format="ascii">
1.12606 1.01159 0.0 
1.13902 1.01055 0.0 
1.15395 1.01469 0.0 
1.14305 1.01912 0.0 
1.13507 1.01258 0.0 
1.12314 1.00525 0.0 
1.09233 1.01288 0.0 
1.15794 1.01835 0.0 
1.07866 1.01643 0.0 
1.07867 1.01584 0.0 
1.12426 1.00615 0.0 
1.12221 1.00424 0.0 
1.07817 1.01531 0.0 
1.13315 1.03376 0.0 
1.16803 1.01372 0.0 
1.08039 1.01593 0.0 
1.08708 1.01285 0.0 
1.16675 1.01854 0.0 
1.12815 1.01035 0.0 
1.17063 1.01969 0.0 
1.18706 1.02124 0.0 
1.09649 1.01339 0.0 
1.16782 1.01314 0.0 
1.09462 1.01095 0.0 
1.1828 1.01968 0.0 
1.13478 1.0114 0.0 
1.1069 1.0205 0.0 
1.13308 1.01828 0.0 
1.11258 1.01677 0.0 
1.11676 1.01686 0.0 
1.15613 1.03353 0.0 
1.15659 1.03086 0.0 
1.09315 1.01543 0.0 
1.09191 1.01538 0.0 
1.09105 1.01484 0.0 
1.15504 1.01818 0.0 
1.14635 1.01367 0.0 
1.10063 1.00597 0.0 
1.11746 1.01195 0.0 
1.09693 1.0089 0.0 
1.06513 1.02932 0.0 
1.10444 1.02535 0.0 
1.18879 1.01956 0.0 
1.09817 1.02257 0.0 
1.08695 1.01434 0.0 
1.17197 1.01638 0.0 
1.09868 1.0082 0.0 
1.10342 1.01699 0.0 
1.1118 1.00898 0.0 
1.13147 1.01893 0.0 
1.071 1.02807 0.0 
1.12047 1.0273 0.0 
1.16488 1.03257 0.0 
1.12943 1.0268 0.0 
1.10329 1.01647 0.0 
1.1022 1.02323 0.0 
1.11871 1.00357 0.0 
1.11199 1.02089 0.0 
1.08781 1.01411 0.0 
1.13928 1.03466 0.0 
1.12982 1.01575 0.0 
1.14076 1.03395 0.0 
1.08589 1.01324 0.0 
1.14684 1.03203 0.0 
1.09404 1.02034 0.0 
1.16412 1.01988 0.0 
1.10611 1.0112 0.0 
1.1778 1.0252 0.0 
1.12154 1.01153 0.0 
1.12121 1.02648 0.0 
1.06964 1.02816 0.0 
1.07022 1.02738 0.0 
1.10988 1.01419 0.0 
1.13474 1.00941 0.0 
1.09098 1.01203 0.0 
1.17492 1.01941 0.0 
1.13254 1.03162 0.0 
1.12851 1.00902 0.0 
1.16456 1.01358 0.0 
1.13334 1.03442 0.0 
1.08435 1.01676 0.0 
1.13547 1.03233 0.0 
1.08012 1.01484 0.0 
1.09432 1.02239 0.0 
1.14924 1.01693 0.0 
1.09873 1.0162 0.0 
1.16141 1.03232 0.0 
1.12906 1.03211 0.0 
1.13441 1.01406 0.0 
1.14438 1.03006 0.0 
1.09441 1.01438 0.0 
1.13062 1.02779 0.0 
1.12846 1.03269 0.0 
1.13126 1.01409 0.0 
1.18154 1.02369 0.0 
1.08171 1.01653 0.0 
1.16598 1.0192 0.0 
1.1416 1.03114 0.0 
1.09946 1.0142 0.0 
1.11688 1.0278 0.0 
1.16489 1.01522 0.0 
1.1788 1.01736 0.0 
1.11713 1.02694 0.0 
1.07477 1.0173 0.0 
1.11231 1.02588 0.0 
1.1746 1.01646 0.0 
1.15196 1.01653 0.0 
1.10625 1.01477 0.0 
1.13691 1.01593 0.0 
1.09677 1.01697 0.0 
1.09981 1.00692 0.0 
1.12591 1.02838 0.0 
1.08277 1.01415 0.0 
1.11515 1.01637 0.0 
1.14617 1.01697 0.0 
1.17352 1.0204 0.0 
1.18812 1.01864 0.0 
1.15359 1.01277 0.0 
1.13383 1.01542 0.0 
1.12678 1.03024 0.0 
1.16538 1.01808 0.0 
1.15989 1.01223 0.0 
1.14741 1.03102 0.0 
1.08776 1.01334 0.0 
1.15242 1.01561 0.0 
1.16708 1.01767 0.0 
1.14319 1.01563 0.0 
1.06771 1.03045 0.0 
1.18304 1.0157 0.0 
1.16676 1.0128 0.0 
1.11068 1.01632 0.0 
1.1274 1.03337 0.0 
1.1194 1.01654 0.0 
1.10924 1.02619 0.0 
1.10276 1.02466 0.0 
1.12647 1.0102 0.0 
1.13079 1.01079 0.0 
1.08619 1.0188 0.0 
1.1388 1.01636 0.0 
1.09366 1.0232 0.0 
1.1554 1.02308 0.0 
1.1088 1.02461 0.0 
1.08719 1.01502 0.0 
1.10204 1.026 0.0 
1.16382 1.01271 0.0 
1.09888 1.00768 0.0 
1.16779 1.02287 0.0 
1.08981 1.01373 0.0 
1.07044 1.02548 0.0 
1.12109 1.0109 0.0 
1.15333 1.03048 0.0 
1.19227 1.02616 0.0 
1.16759 1.01948 0.0 
1.1441 1.02941 0.0 
1.09873 1.00715 0.0 
1.09 1.01499 0.0 
1.09915 1.00689 0.0 
1.15627 1.03241 0.0 
1.10247 1.02401 0.0 
1.15814 1.01331 0.0 
1.16236 1.01451 0.0 
1.17221 1.01894 0.0 
1.08341 1.01939 0.0 
1.09504 1.00927 0.0 
1.1 1.00637 0.0 
1.09144 1.01413 0.0 
1.14354 1.02206 0.0 
1.14548 1.00713 0.0 
1.09724 1.02027 0.0 
1.09966 1.02559 0.0 
1.16056 1.01769 0.0 
1.16676 1.01014 0.0 
1.17241 1.01951 0.0 
1.08151 1.01722 0.0 
1.13645 1.03107 0.0 
1.12311 1.02978 0.0 
1.07573 1.01584 0.0 
1.1681 1.01829 0.0 
1.12484 1.01758 0.0 
1.18539 1.01907 0.0 
1.13795 1.01402 0.0 
1.11691 1.02976 0.0 
1.1584 1.01793 0.0 
1.12722 1.01903 0.0 
1.17965 1.01962 0.0 
1.10821 1.02693 0.0 
1.15119 1.01594 0.0 
1.09931 1.02345 0.0 
1.11854 1.02616 0.0 
1.1198 1.01773 0.0 
1.11173 1.01495 0.0 
1.14578 1.03449 0.0 
1.09741 1.00914 0.0 
1.13395 1.03517 0.0 
1.13514 1.01694 0.0 
1.09351 1.01081 0.0 
1.12494 1.01008 0.0 
1.11463 1.01864 0.0 
1.13422 1.03303 0.0 
1.09843 1.01396 0.0 
1.15376 1.01869 0.0 
1.1483 1.01474 0.0 
1.11167 1.01765 0.0 
1.0903 1.01307 0.0 
1.13269 1.01109 0.0 
1.09057 1.01148 0.0 
1.08942 1.01197 0.0 
1.11336 1.01591 0.0 
1.11772 1.03053 0.0 
1.07998 1.01549 0.0 
1.12986 1.0309 0.0 
1.09247 1.01824 0.0 
1.1225 1.00846 0.0 
1.18079 1.01676 0.0 
1.09622 1.00928 0.0 
1.15692 1.01757 0.0 
1.12792 1.00969 0.0 
1.08212 1.0155 0.0 
1.12847 1.01451 0.0 
1.14464 1.03064 0.0 
1.14713 1.01448 0.0 
1.13833 1.0294 0.0 
1.16495 1.01878 0.0 
1.07695 1.01558 0.0 
1.16881 1.0157 0.0 
1.12918 1.02951 0.0 
1.09529 1.02893 0.0 
1.13594 1.0305 0.0 
1.10365 1.02664 0.0 
1.11495 1.02635 0.0 
1.12419 1.00954 0.0 
1.08089 1.01772 0.0 
1.13069 1.00826 0.0 
1.17338 1.0182 0.0 
1.07939 1.01502 0.0 
1.15808 1.01386 0.0 
1.15263 1.03307 0.0 
1.06802 1.02735 0.0 
1.12182 1.01221 0.0 
1.09161 1.0118 0.0 
1.13107 1.01947 0.0 
1.13001 1.02579 0.0 
1.18548 1.02021 0.0 
1.18156 1.0206 0.0 
1.08849 1.01234 0.0 
1.13911 1.02192 0.0 
1.1864 1.01821 0.0 
1.09389 1.01382 0.0 
1.09542 1.00978 0.0 
1.09102 1.01128 0.0 
1.15978 1.01551 0.0 
1.08091 1.01656 0.0 
1.15288 1.01516 0.0 
1.12099 1.02546 0.0 
1.11849 1.01832 0.0 
1.07744 1.01547 0.0 
1.1405 1.01242 0.0 
1.14514 1.02859 0.0 
1.09586 1.0101 0.0 
1.10524 1.0246 0.0 
1.08047 1.0172 0.0 
1.15529 1.01287 0.0 
1.12268 1.00788 0.0 
1.15351 1.02978 0.0 
1.09784 1.00822 0.0 
1.10733 1.0251 0.0 
1.16224 1.00738 0.0 
1.17009 1.01863 0.0 
1.12697 1.01519 0.0 
1.08837 1.01659 0.0 
1.16915 1.01903 0.0 
1.1569 1.01434 0.0 
1.12225 1.01889 0.0 
1.09852 1.02863 0.0 
1.17151 1.01545 0.0 
1.15254 1.02301 0.0 
1.07665 1.01611 0.0 
1.16057 1.03177 0.0 
1.15995 1.01858 0.0 
1.17642 1.01597 0.0 
1.14114 1.0289 0.0 
1.17585 1.01821 0.0 
1.14331 1.00841 0.0 
1.11764 1.01596 0.0 
1.0689 1.02632 0.0 
1.10302 1.0153 0.0 
1.12057 1.00971 0.0 
1.09632 1.01739 0.0 
1.12647 1.00664 0.0 
1.13481 1.01898 0.0 
1.10533 1.01249 0.0 
1.12048 1.01395 0.0 
1.10926 1.01715 0.0 
1.09111 1.03461 0.0 
1.1119 1.02441 0.0 
1.16423 1.01738 0.0 
1.16278 1.01769 0.0 
1.17409 1.01866 0.0 
1.1538 1.01607 0.0 
1.0722 1.02792 0.0 
1.14167 1.01388 0.0 
1.10977 1.00546 0.0 
1.14888 1.01183 0.0 
1.11559 1.01481 0.0 
1.11877 1.01888 0.0 
1.06977 1.02659 0.0 
1.12532 1.02754 0.0 
1.18008 1.01909 0.0 
1.16305 1.01222 0.0 
1.16199 1.01838 0.0 
1.10951 1.01816 0.0 
1.11611 1.01299 0.0 
1.12102 1.02811 0.0 
1.14944 1.02113 0.0 
1.12824 1.01707 0.0 
1.08825 1.01478 0.0 
1.11341 1.02758 0.0 
1.0898 1.01571 0.0 
1.16547 1.01306 0.0 
1.08161 1.01518 0.0 
1.09337 1.02731 0.0 
1.15978 1.01364 0.0 
1.07705 1.0248 0.0 
1.18023 1.0152 0.0 
1.09757 1.02517 0.0 
1.12878 1.01095 0.0 
1.08784 1.01514 0.0 
1.15188 1.01715 0.0 
1.08175 1.018 0.0 
1.08607 1.01705 0.0 
1.13525 1.02811 0.0 
1.1269 1.01632 0.0 
1.15638 1.02208 0.0 
1.07326 1.02075 0.0 
1.1005 1.01013 0.0 
1.1592 1.03292 0.0 
1.11245 1.0251 0.0 
1.06916 1.01752 0.0 
1.16299 1.01315 0.0 
1.09548 1.00903 0.0 
1.08912 1.01495 0.0 
1.17786 1.03078 0.0 
1.06895 1.02886 0.0 
1.17347 1.01329 0.0 
1.14881 1.02952 0.0 
1.08895 1.01216 0.0 
1.1596 1.0163 0.0 
1.14085 1.01601 0.0 
1.1395 1.03 0.0 
1.10651 1.02756 0.0 
1.08344 1.01704 0.0 
1.18653 1.02461 0.0 
1.14305 1.03169 0.0 
1.15442 1.03174 0.0 
1.12232 1.01602 0.0 
1.17468 1.01279 0.0 
1.16428 1.01568 0.0 
1.0946 1.0095 0.0 
1.11423 0.996217 0.0 
1.10051 1.01818 0.0 
1.09614 1.00866 0.0 
1.14544 1.01811 0.0 
1.07984 1.01785 0.0 
1.12137 1.00906 0.0 
1.12379 1.01828 0.0 
1.09948 1.01515 0.0 
1.10381 1.0159 0.0 
1.12102 1.01021 0.0 
1.13293 1.01743 0.0 
1.08276 1.01827 0.0 
1.16766 1.01469 0.0 
1.08661 1.01301 0.0 
1.16475 1.01224 0.0 
1.16206 1.01371 0.0 
1.14355 1.01757 0.0 
1.10249 1.01475 0.0 
1.07493 1.01662 0.0 
1.13709 1.01796 0.0 
1.12576 1.0157 0.0 
1.08944 1.0132 0.0 
1.09189 1.01474 0.0 
1.13822 1.01686 0.0 
1.15291 1.01423 0.0 
1.09329 1.0145 0.0 
1.10571 1.01851 0.0 
1.12365 1.01678 0.0 
1.09231 1.01364 0.0 
1.13415 1.02927 0.0 
1.12685 1.01075 0.0 
1.11915 1.01358 0.0 
1.09443 1.0158 0.0 
1.10907 1.00015 0.0 
1.1246 1.01953 0.0 
1.1649 1.01636 0.0 
1.07581 1.01641 0.0 
1.1518 1.01471 0.0 
1.08243 1.01492 0.0 
1.08233 1.01763 0.0 
1.13132 1.01283 0.0 
1.12221 1.00956 0.0 
1.12023 1.03157 0.0 
1.13841 1.03168 0.0 
1.09026 1.01694 0.0 
1.09261 1.01503 0.0 
1.11213 1.01539 0.0 
1.09679 1.02376 0.0 
1.18412 1.01834 0.0 
1.07622 1.01574 0.0 
1.12303 1.00677 0.0 
1.11241 1.00423 0.0 
1.10248 1.03525 0.0 
1.13253 1.01466 0.0 
1.0798 1.02042 0.0 
1.09394 1.00985 0.0 
1.10848 1.01585 0.0 
1.09303 1.01392 0.0 
1.13742 1.01738 0.0 
1.12429 1.01472 0.0 
1.17362 1.01583 0.0 
1.07351 1.01753 0.0 
1.16987 1.02015 0.0 
1.10534 1.02707 0.0 
1.08887 1.01291 0.0 
1.09403 1.0116 0.0 
1.14829 1.01001 0.0 
1.1747 1.01382 0.0 
1.09092 1.01267 0.0 
1.10368 1.00807 0.0 
1.10562 1.02389 0.0 
1.08755 1.01269 0.0 
1.1225 1.03037 0.0 
1.09318 1.01235 0.0 
1.07056 1.02673 0.0 
1.14981 1.02046 0.0 
1.18294 1.02941 0.0 
1.11993 1.01495 0.0 
1.16073 1.03109 0.0 
1.0814 1.01586 0.0 
1.0614 1.01921 0.0 
1.0907 1.01545 0.0 
1.075 1.01599 0.0 
1.09862 1.01578 0.0 
1.09066 1.01372 0.0 
1.16987 1.01111 0.0 
1.10701 1.01421 0.0 
1.12294 1.01176 0.0 
1.12024 1.00727 0.0 
1.12548 1.00747 0.0 
1.11157 1.0107 0.0 
1.12448 1.02685 0.0 
1.12516 1.00876 0.0 
1.07672 1.02416 0.0 
1.11594 1.02562 0.0 
1.16582 1.01245 0.0 
1.1711 1.03214 0.0 
1.11871 1.01449 0.0 
1.14074 1.01721 0.0 
1.15973 1.02371 0.0 
1.13722 1.01303 0.0 
1.08864 1.01372 0.0 
1.13694 1.02874 0.0 
1.10227 1.01871 0.0 
1.08318 1.02506 0.0 
1.08418 1.02252 0.0 
1.12448 1.00809 0.0 
1.13419 1.00778 0.0 
1.13353 1.02998 0.0 
1.06329 1.01951 0.0 
1.12339 1.00891 0.0 
[...]
<PointData>
  <DataArray type = "Float64" Name="Vitesse" NumberOfComponents="3" format="ascii">
0.0310859 -0.00192435 0.0 
-0.0215118 -0.0610748 0.0 
0.0330695 -0.0644267 0.0 
0.281026 -0.0426536 0.0 
0.0455207 -0.0358364 0.0 
-0.0382934 0.010785 0.0 
-0.010926 0.00744265 0.0 
0.202943 -0.047164 0.0 
0.0198775 -0.00261333 0.0 
0.00748093 -0.00133625 0.0 
-0.0340639 0.00617229 0.0 
-0.0415552 0.0144643 0.0 
0 0 0.0 
1.05701 -0.0195513 0.0 
-0.0290439 -0.0203615 0.0 
0.0128501 -0.00162643 0.0 
0 0 0.0 
0.202412 -0.0295962 0.0 
0.00972969 -0.00965468 0.0 
0.274437 -0.0211555 0.0 
0.439502 -6.16221e-05 0.0 
-0.00600443 0.0125148 0.0 
-0.0503443 -0.0201127 0.0 
-0.0132277 0.00740099 0.0 
0.319854 0.00487602 0.0 
0.0177394 -0.0380086 0.0 
0.299431 -0.00493212 0.0 
0.246354 -0.0260059 0.0 
0.132655 0.00590888 0.0 
0.150239 0.00277882 0.0 
1.02162 -0.0335948 0.0 
0.925817 -0.0357535 0.0 
0.0255816 0.00589554 0.0 
0.0213133 0.0050368 0.0 
0.00849416 0.00528453 0.0 
0.201488 -0.0503544 0.0 
0.031384 -0.0664977 0.0 
0 0 0.0 
0.0205649 0.0173732 0.0 
-0.00776062 0.00448786 0.0 
1.13534 0.0691336 0.0 
0.652456 -0.00934787 0.0 
0.353839 0.0126403 0.0 
0.430911 -0.00879517 0.0 
-0.00106064 0.00200516 0.0 
0.0939146 -0.0102384 0.0 
-0.0108727 0.00660563 0.0 
0.108352 0.006079 0.0 
-0.0276729 0.0282162 0.0 
0.274956 -0.0236899 0.0 
1.01853 0.0365658 0.0 
0.778272 -0.0170122 0.0 
0.987125 -0.0358584 0.0 
0.740573 -0.0251502 0.0 
0.0885386 0.00783499 0.0 
0.485865 -0.00902423 0.0 
-0.0417599 0.0256616 0.0 
0.337233 -0.00689798 0.0 
-0.00269306 0.00269241 0.0 
1.07057 -0.0233121 0.0 
0.143161 -0.0166299 0.0 
1.05098 -0.0254733 0.0 
0 0 0.0 
0.981802 -0.0314875 0.0 
0.259682 -0.00696517 0.0 
0.283351 -0.0349077 0.0 
-0.0175236 0.0230335 0.0 
0.642163 -0.0242913 0.0 
0.0232724 0.0108173 0.0 
0.724179 -0.0181467 0.0 
1.03554 0.0416743 0.0 
0.97433 0.0330252 0.0 
0.0435781 0.015856 0.0 
-0.0227558 -0.0455128 0.0 
-0.00675809 0.00321001 0.0 
0.267802 -0.0103907 0.0 
0.987019 -0.0221493 0.0 
-0.0105259 -0.0127195 0.0 
-0.0389898 -0.0365403 0.0 
1.07362 -0.0187363 0.0 
0.043566 -0.00274643 0.0 
1.00883 -0.0237343 0.0 
0 0 0.0 
0.41451 -0.00970511 0.0 
0.157198 -0.0548238 0.0 
0.0644732 0.0070373 0.0 
0.979835 -0.0355342 0.0 
1.0108 -0.0181362 0.0 
0.0885571 -0.030503 0.0 
0.903001 -0.0329511 0.0 
0.00577022 0.00920415 0.0 
0.799447 -0.0254411 0.0 
1.03199 -0.0166441 0.0 
0.0917085 -0.0201439 0.0 
0.561773 -0.0169469 0.0 
0.0301889 -0.00291587 0.0 
0.241681 -0.0315857 0.0 
0.954092 -0.0301868 0.0 
0.0130708 0.0132555 0.0 
0.813194 -0.0137605 0.0 
0.0299432 -0.0353138 0.0 
0.170778 0.00912175 0.0 
0.757324 -0.0148069 0.0 
0.0357987 -0.00439462 0.0 
0.687384 -0.0124124 0.0 
0.107149 -0.00074905 0.0 
0.127231 -0.0572677 0.0 
0.0464465 0.0140393 0.0 
0.14798 -0.0354375 0.0 
0.0858569 0.00379212 0.0 
-0.00497715 0.00310802 0.0 
0.838176 -0.0206126 0.0 
0 0 0.0 
0.126984 0.00574941 0.0 
0.169622 -0.0515722 0.0 
0.324215 -0.0163111 0.0 
0.299212 0.0192889 0.0 
-0.0428144 -0.0739988 0.0 
0.132692 -0.0275199 0.0 
0.935469 -0.0189187 0.0 
0.175898 -0.0334038 0.0 
-0.0837993 -0.0581114 0.0 
0.941678 -0.0329849 0.0 
-0.00421641 0.0018068 0.0 
0.0816091 -0.0609416 0.0 
0.153147 -0.0285301 0.0 
0.121715 -0.0513096 0.0 
1.1581 0.0658154 0.0 
0.123379 0.0320668 0.0 
-0.0641251 -0.0248418 0.0 
0.109346 0.00822437 0.0 
1.05484 -0.0145201 0.0 
0.147075 0.00103191 0.0 
0.711502 -0.0106146 0.0 
0.598994 -0.0092658 0.0 
0.00792533 -0.00269348 0.0 
0.0146436 -0.0211757 0.0 
0.142628 -0.00754357 0.0 
0.162057 -0.0394654 0.0 
0.481379 -0.0100029 0.0 
0.491273 -0.0411615 0.0 
0.594537 -0.0110552 0.0 
0.0068801 0.00184994 0.0 
0.705588 -0.00783508 0.0 
-0.070434 -0.0397091 0.0 
-0.00699397 0.00424771 0.0 
0.474447 -0.0298075 0.0 
-0.00538284 0.0045432 0.0 
0.797396 0.0149211 0.0 
0.0121211 0.0131522 0.0 
0.911742 -0.0354406 0.0 
0.755811 -0.0292631 0.0 
0.25814 -0.028125 0.0 
0.871806 -0.0336707 0.0 
0 0 0.0 
0.00974043 0.00402406 0.0 
0 0 0.0 
0.985721 -0.0344625 0.0 
0.547354 -0.00933369 0.0 
-0.0404816 -0.0619103 0.0 
-0.000350446 -0.0452709 0.0 
0.232245 -0.0158343 0.0 
0.172601 -0.00970811 0.0 
0 0 0.0 
0 0 0.0 
-0.00166624 0.00646083 0.0 
0.442989 -0.0398871 0.0 
-0.140125 -0.110187 0.0 
0.261496 -0.00548921 0.0 
0.676493 -0.00768404 0.0 
0.160331 -0.0444634 0.0 
-0.138086 -0.0183838 0.0 
0.266775 -0.0166341 0.0 
0.0527389 -0.00456006 0.0 
0.958708 -0.0263162 0.0 
0.918336 -0.0162698 0.0 
0 0 0.0 
0.188161 -0.0259695 0.0 
0.203232 -0.00984104 0.0 
0.301852 0.0126543 0.0 
0.0800199 -0.0423744 0.0 
0.927181 -0.0108557 0.0 
0.178246 -0.0475743 0.0 
0.273365 -0.0166686 0.0 
0.2993 -0.000689041 0.0 
0.76602 -0.00924914 0.0 
0.102383 -0.0595689 0.0 
0.502141 -0.00911764 0.0 
0.704485 -0.0163257 0.0 
0.195363 -0.0033427 0.0 
0.0697757 0.0125682 0.0 
1.05795 -0.0279411 0.0 
-0.0126226 0.00737047 0.0 
1.08928 -0.0182072 0.0 
0.188838 -0.0303572 0.0 
-0.00794484 0.004057 0.0 
0.00555909 0.00302865 0.0 
0.220313 -0.00175585 0.0 
1.03394 -0.0216301 0.0 
0.00618035 0.0131289 0.0 
0.233317 -0.0495212 0.0 
0.0634231 -0.0633587 0.0 
0.164613 0.00311609 0.0 
-0.00813634 0.00457525 0.0 
0.0168105 -0.0293669 0.0 
0 0 0.0 
0 0 0.0 
0.104796 0.00846136 0.0 
0.964529 -0.0101875 0.0 
0.0051576 -0.000635104 0.0 
0.961274 -0.020797 0.0 
0.129483 -0.00246019 0.0 
-0.015868 0.0126824 0.0 
0.153719 0.0184586 0.0 
-0.00755371 0.00426779 0.0 
0.16302 -0.0503263 0.0 
-0.00041867 -0.00915609 0.0 
0.0083961 -0.000940248 0.0 
0.102814 -0.011857 0.0 
0.928847 -0.0322999 0.0 
0.0584791 -0.0631251 0.0 
0.878316 -0.0302549 0.0 
0.216385 -0.034139 0.0 
0 0 0.0 
0.0548829 -0.0207372 0.0 
0.895894 -0.022117 0.0 
0.933858 0.00326877 0.0 
0.934584 -0.0267406 0.0 
0.752082 -0.00747854 0.0 
0.719178 -0.0136407 0.0 
-0.00226962 0.00601248 0.0 
0.0723513 -0.00600662 0.0 
-0.0254628 -0.0265459 0.0 
0.192883 -0.0109528 0.0 
0 0 0.0 
-0.0184788 -0.0603413 0.0 
1.01067 -0.0328305 0.0 
0.993024 0.0400323 0.0 
0.0362819 0.00876993 0.0 
-0.00751029 0.00370707 0.0 
0.300995 -0.0236414 0.0 
0.676312 -0.0261169 0.0 
0.367135 0.00524838 0.0 
0.367947 -0.00226571 0.0 
0 0 0.0 
0.437241 -0.0358992 0.0 
0.263849 0.0204151 0.0 
-0.00339988 0.00941615 0.0 
-0.00796602 0.00447767 0.0 
0 0 0.0 
0.0491901 -0.0514255 0.0 
0.0289109 -0.00305935 0.0 
0.0589456 -0.0628378 0.0 
0.656269 -0.0182163 0.0 
0.217648 -0.00354648 0.0 
0 0 0.0 
0.0212252 -0.0571983 0.0 
0.828042 -0.035045 0.0 
-0.0127226 0.0073119 0.0 
0.593933 -0.00988739 0.0 
0.04924 -0.00473931 0.0 
-0.0466761 -0.0704242 0.0 
-0.0211648 0.0122454 0.0 
0.879351 -0.0361085 0.0 
-0.00619847 0.00366812 0.0 
0.631504 -0.0105144 0.0 
-0.194856 -0.045329 0.0 
0.210455 -0.0208809 0.0 
0.120841 -0.00913502 0.0 
0.047867 -0.000473341 0.0 
0.232577 -0.023975 0.0 
0.00512997 -0.0617045 0.0 
0.255263 -0.00959106 0.0 
0.904022 0.000133918 0.0 
0.0495193 -0.00911785 0.0 
0.489969 -0.0416976 0.0 
0.00745385 -0.00124269 0.0 
0.9602 -0.0356313 0.0 
0.211801 -0.0435485 0.0 
0.0932643 0.00815696 0.0 
0.849304 -0.0326153 0.0 
0.201648 -0.00367514 0.0 
-0.0993215 -0.0944362 0.0 
0.121245 0.00503307 0.0 
0.895741 0.0271433 0.0 
0.0503241 0.0116081 0.0 
-0.00497579 0.0165289 0.0 
0.101544 0.00227768 0.0 
-0.0329302 -0.00518761 0.0 
0.27962 -0.0295603 0.0 
-0.00295773 0.0202386 0.0 
0.0713871 0.00703733 0.0 
0.135444 0.0054775 0.0 
1.1542 0.0267048 0.0 
0.580299 -0.0123179 0.0 
0.137637 -0.0365891 0.0 
0.156235 -0.040167 0.0 
0.221155 -0.0102312 0.0 
0.0973382 -0.0584326 0.0 
0.997979 0.0317055 0.0 
0.0616127 -0.0541546 0.0 
-0.0355901 0.0264545 0.0 
-0.0485039 -0.0805794 0.0 
0.0792225 0.0106627 0.0 
0.244789 -0.00548334 0.0 
0.912298 0.0270702 0.0 
0.789122 -0.0209444 0.0 
0.270835 0.00304213 0.0 
-0.0871518 -0.0435183 0.0 
0.196019 -0.0408113 0.0 
0.179998 0.00183236 0.0 
0.0365202 0.0160829 0.0 
0.827809 -0.0166586 0.0 
0.380782 -0.0440531 0.0 
0.18944 -0.0149467 0.0 
0.00426286 0.00275382 0.0 
0.803662 -0.0114273 0.0 
0.0249774 0.00263585 0.0 
-0.0572999 -0.0319002 0.0 
0.0036916 -0.000569324 0.0 
0.828462 -0.00141454 0.0 
-0.0318583 -0.0557257 0.0 
0.678206 -0.00125177 0.0 
0.08363 0.0267535 0.0 
0.645283 -0.00802208 0.0 
0.0198871 -0.0120016 0.0 
0.00963077 0.00206644 0.0 
0.158313 -0.0547786 0.0 
0.0875261 -0.00663245 0.0 
0.0583922 -0.0025443 0.0 
0.81279 -0.0292748 0.0 
0.158697 -0.0109256 0.0 
0.428137 -0.0414818 0.0 
0.268107 -0.0115092 0.0 
-0.025234 0.0175151 0.0 
1.00101 -0.0348259 0.0 
0.630655 -0.0127272 0.0 
0.0219402 -0.00293511 0.0 
-0.054679 -0.0435959 0.0 
0 0 0.0 
0.0078229 0.00336306 0.0 
0.929462 -0.0369187 0.0 
1.08312 0.0499463 0.0 
-0.0242498 0.00854125 0.0 
0.871633 -0.0351616 0.0 
0 0 0.0 
0.0882045 -0.0498969 0.0 
0.144081 -0.0450323 0.0 
0.906044 -0.0303186 0.0 
0.813128 -0.00731967 0.0 
0.0507661 -0.00396182 0.0 
0.640542 -0.0193798 0.0 
0.974186 -0.0302658 0.0 
0.962895 -0.0346492 0.0 
0.137627 -0.00159798 0.0 
-0.0337997 0.0175161 0.0 
0.0514652 -0.0374436 0.0 
0 0 0.0 
0 0 0.0 
0.15088 0.00132958 0.0 
0 0 0.0 
0.226101 -0.0474996 0.0 
0.0753708 -0.00661484 0.0 
-0.0108738 0.0155297 0.0 
0.230587 -0.0100246 0.0 
0.0353318 0.0106937 0.0 
0.0710192 0.0098792 0.0 
0.00215832 0.0145954 0.0 
0.209356 -0.0252386 0.0 
0.104029 -0.00731196 0.0 
0.00919806 -0.0238403 0.0 
0 0 0.0 
-0.0854004 -0.034665 0.0 
-0.0333151 -0.0473117 0.0 
0.204685 -0.0463713 0.0 
0.0339741 0.0132123 0.0 
0.0136126 -0.00200443 0.0 
0.232022 -0.0342626 0.0 
0.135111 -0.00737148 0.0 
-0.00658634 0.00365591 0.0 
0.00814509 0.00619776 0.0 
0.183178 -0.0374967 0.0 
0.0183117 -0.0675109 0.0 
0.00609483 0.00791874 0.0 
0.183897 0.00105111 0.0 
0.168831 -0.00589741 0.0 
-0.00632339 0.00769942 0.0 
0.877249 -0.0269147 0.0 
0.0167156 -0.00432996 0.0 
0.0586212 0.0103131 0.0 
0.0390351 0.00592061 0.0 
0 0 0.0 
0.292838 -0.0140993 0.0 
0.0840714 -0.0352957 0.0 
0.0111165 -0.00196539 0.0 
0.0445763 -0.0651044 0.0 
0.00215384 -0.000244484 0.0 
0.0721081 -0.00563092 0.0 
0.0580542 -0.0209856 0.0 
-0.00421632 0.0124535 0.0 
1.00511 -0.0105964 0.0 
0.980637 -0.0269203 0.0 
0.0651474 -0.000157869 0.0 
0.0148714 0.00638874 0.0 
0.0841324 0.010861 0.0 
0.527801 -0.00936856 0.0 
0.253764 0.0155535 0.0 
0 0 0.0 
-0.029705 0.0112885 0.0 
-0.0376623 0.028569 0.0 
1.13881 0.0140544 0.0 
0.108594 -0.0239795 0.0 
0.24232 -0.0120314 0.0 
0 0 0.0 
0.0858123 0.0103114 0.0 
-0.00289052 0.00835725 0.0 
0.20645 -0.0352689 0.0 
0.101819 -0.00205181 0.0 
0.0742003 -0.00195802 0.0 
0.0407345 -0.00475991 0.0 
0.302482 -0.0234721 0.0 
0.78046 -0.00763348 0.0 
-0.00522169 0.00232667 0.0 
-0.0141557 0.00816526 0.0 
-0.0991086 -0.0926664 0.0 
6.01787e-05 0.0120453 0.0 
-0.00899908 0.00489465 0.0 
-0.0289569 0.0197781 0.0 
0.539118 -0.00991603 0.0 
0 0 0.0 
0.948224 -0.0147563 0.0 
-0.0131512 0.00809935 0.0 
0.917214 0.0262073 0.0 
0.341689 -0.0454889 0.0 
0.881271 -0.0357436 0.0 
0.096817 0.00521512 0.0 
0.933245 -0.0360093 0.0 
0.0130793 -0.00150533 0.0 
0.113885 -0.00522332 0.0 
0.0205424 0.00392374 0.0 
0 0 0.0 
0.0504093 0.00842257 0.0 
-0.00573093 0.00560653 0.0 
-0.103727 -0.00183524 0.0 
0.0348127 0.0158894 0.0 
0.0301382 0.00681288 0.0 
-0.0278094 0.0203595 0.0 
-0.0248333 0.0007633 0.0 
-0.0126201 0.0251427 0.0 
0.746792 -0.0207199 0.0 
-0.0115846 0.00234199 0.0 
0.612885 -0.00430164 0.0 
0.66771 -0.0145349 0.0 
-0.0776082 -0.029277 0.0 
0.97361 -0.0366718 0.0 
0.0802374 0.00830668 0.0 
0.194368 -0.0421365 0.0 
0.527575 -0.0379077 0.0 
0.0516862 -0.0427236 0.0 
-0.00503367 0.00326026 0.0 
0.845683 -0.0299694 0.0 
0.182939 3.7147e-05 0.0 
0.674561 -0.00488203 0.0 
0.427499 -0.0117521 0.0 
-0.0187883 0.00518423 0.0 
-0.0467432 -0.0503259 0.0 
0.913471 -0.0254382 0.0 
0.146207 -0.00644653 0.0 
-0.0102524 0.00921627 0.0 
-0.0231112 -0.0044606 0.0 
0.735855 -0.00902194 0.0 
0.0180415 0.000543802 0.0 
-0.013937 0.010047 0.0 
-0.0844325 -0.0890288 0.0 
0.0323413 0.0229195 0.0 
0.866706 0.0215467 0.0 
-0.0315527 0.0235674 0.0 
0.0822778 -0.00749376 0.0 
0.933899 0.0264449 0.0 
0.739824 -0.0114039 0.0 
0.376128 -0.0432213 0.0 
0.00328987 -0.0403169 0.0 
0.038081 0.00460885 0.0 
0.126145 -0.0406636 0.0 
0.105144 -0.0375256 0.0 
0.695719 -0.0239286 0.0 
-0.00999364 -0.0220242 0.0 
0.00808003 -0.0322246 0.0 
-0.02178 0.0161085 0.0 
0.949798 -0.0336965 0.0 
-0.00925121 0.01015 0.0 
0.0241257 0.00997202 0.0 
0.0430135 -0.00387751 0.0 
0.896186 0.00540164 0.0 
0.0172859 0.00739083 0.0 
0.808493 -0.0331845 0.0 
0.112865 0.0198891 0.0 
0.0975213 0.00858563 0.0 
-0.0807211 -0.015999 0.0 
-0.092369 0.00350867 0.0 
-0.00546173 0.00247456 0.0 
1.12151 0.0286776 0.0 
0.0201182 0.014758 0.0 
-0.0375277 -0.0677516 0.0 
0.164212 -0.0524397 0.0 
0.0483857 -0.0607883 0.0 
-0.00854043 0.00642101 0.0 
0.705421 -0.00877225 0.0 
0.00204994 0.00727473 0.0 
0.468064 -0.00943903 0.0 
0.0191567 0.00826399 0.0 
0.131782 -0.0524517 0.0 
0.011039 0.0107149 0.0 
0.996134 -0.0287485 0.0 
-0.0709182 -0.0506971 0.0 
0.230561 -0.0463804 0.0 
1.1674 0.0508959 0.0 
0.552408 -0.0146261 0.0 
0.253812 -0.042566 0.0 
-0.141393 -0.108839 0.0 
0.539756 -0.0396727 0.0 
0.0617729 0.00391535 0.0 
0.0308825 -0.00408588 0.0 
-0.0118152 0.0122131 0.0 
0.26145 -0.0485953 0.0 
0.00118772 0.00234979 0.0 
0.0515774 -0.00275133 0.0 
0.0943131 -0.00205191 0.0 
-0.00434375 -0.0235157 0.0 
0.942721 0.00717372 0.0 
-1.04918e-05 0.00511053 0.0 
-0.1431 -0.103942 0.0 
0.0769294 -0.0040432 0.0 
-0.0544383 0.0200031 0.0 
-0.010258 0.00565824 0.0 
-0.000120765 0.00328749 0.0 
0.217405 -0.0401055 0.0 
0.900959 -0.0107405 0.0 
-0.00594096 0.00269483 0.0 
0.368134 -0.00733616 0.0 
0.0143024 -0.00200565 0.0 
-0.0117599 0.00845038 0.0 
0.712801 -0.0252297 0.0 
0.0223786 -0.00300214 0.0 
0.185705 -0.0527351 0.0 
0.0489456 0.0124224 0.0 
-0.0489957 0.00614376 0.0 
-0.00739295 0.00558065 0.0 
0.196831 -0.0110478 0.0 
0.102841 -0.00772915 0.0 
0.225672 -0.0501766 0.0 
1.0513 0.038482 0.0 
-0.0122726 -0.0537752 0.0 
0.12143 -0.0476083 0.0 
1.13991 0.0406695 0.0 
0.0152855 -0.00245571 0.0 
0.107482 -0.0586676 0.0 
0.680939 -0.00687584 0.0 
-0.0687329 -0.0790379 0.0 
0.0583095 -0.0057315 0.0 
-0.023195 -0.0119723 0.0 
0 0 0.0 
-0.000645747 0.0144619 0.0 
1.04567 0.0600087 0.0 
0.987434 0.011144 0.0 
0.305089 -0.0346105 0.0 
0.0915894 -0.00773221 0.0 
0.701987 -0.00678378 0.0 
1.03624 -0.0250792 0.0 
0.877077 -0.0200592 0.0 
0.0931995 0.00907446 0.0 
0.0486477 -0.0126791 0.0 
-0.0434849 0.0166148 0.0 
0.634699 -0.00762862 0.0 
-0.0107696 0.0199787 0.0 
0.00522377 -0.0692772 0.0 
-0.115458 -0.096908 0.0 
-0.178173 -0.0735503 0.0 
0.033553 -0.0102006 0.0 
-0.0205072 0.0266607 0.0 
0 0 0.0 
0.881409 -0.0155136 0.0 
-0.00649449 0.00494977 0.0 
0.00963558 -0.00143858 0.0 
0 0 0.0 
0 0 0.0 
0.00712415 0.00892599 0.0 
0.0109498 -0.015583 0.0 
-0.142609 -0.106664 0.0 
-0.0294768 0.0285741 0.0 
-0.0699523 -0.0729165 0.0 
-0.00605503 0.00474372 0.0 
0 0 0.0 
0.760621 -0.0308666 0.0 
-0.0130398 0.00981904 0.0 
-0.114393 -0.0568096 0.0 
-0.0105891 0.0207302 0.0 
-0.0101819 0.00687447 0.0 
-0.0401495 0.0267155 0.0 
0.25897 -0.0119395 0.0 
0.848256 0.00452235 0.0 
-0.124459 -0.0187043 0.0 
0.0118572 -0.0707672 0.0 
0.00354381 -0.0233474 0.0 
-0.0178713 0.0140255 0.0 
0 0 0.0 
-0.0400676 0.0167622 0.0 
-0.120064 -0.100494 0.0 
-0.0297111 0.0138869 0.0 
0.194835 -0.00923771 0.0 
-0.0155257 0.010609 0.0 
-0.0371543 0.0299383 0.0 
0.0504886 0.00220462 0.0 
1.01931 -0.0015177 0.0 
-0.0801121 0.014789 0.0 
0 0 0.0 
-0.00663286 0.00452511 0.0 
-0.0342589 0.0287015 0.0 
-0.00661895 0.00515546 0.0 
0 0 0.0 
0 0 0.0 
-0.0120978 0.00934963 0.0 
-0.0274327 0.0187444 0.0 
-0.012435 0.00884199 0.0 
0.0434811 -0.00503463 0.0 
0 0 0.0 
1.18721 0.0679238 0.0 
-0.00524031 0.00379238 0.0 
0.166102 -0.0102273 0.0 
0.0591497 0.0137188 0.0 
-0.00479567 0.00204708 0.0 
-0.00939285 0.0237648 0.0 
-0.0244369 -0.0704372 0.0 
-0.0337003 0.0296998 0.0 
0.0225446 -0.00309051 0.0 
-0.0146893 -0.00617257 0.0 
-0.021164 -0.0380525 0.0 
-0.154416 -0.101926 0.0 
-0.153926 -0.0346054 0.0 
0.0280565 -0.00313116 0.0 
1.12464 0.0385867 0.0 
-0.00663198 0.00511163 0.0 
0.369806 -0.0121078 0.0 
0.173917 -0.0217164 0.0 
0.724915 -0.0274491 0.0 
-0.0761973 -0.0871524 0.0 
0 0 0.0 
0.604599 -0.00783485 0.0 
0 0 0.0 
-0.00724149 0.00503779 0.0 
0.22937 -0.0116332 0.0 
1.07418 0.0282417 0.0 
-0.107646 -0.0859962 0.0 
0 0 0.0 
-0.157849 -0.0956968 0.0 
1.13696 0.0359049 0.0 
0 0 0.0 
-0.0128972 0.0142414 0.0 
0.199145 -0.0113265 0.0 
1.034 0.0148181 0.0 
0.10723 -0.0539873 0.0 
-0.125525 -0.0321377 0.0 
0.729374 -0.00547684 0.0 
0.0605127 -0.00587725 0.0 
-0.15792 -0.0887006 0.0 
0.0684357 -0.00319481 0.0 
1.10581 0.0155355 0.0 
0.0639053 -0.00663284 0.0 
0.0162022 -0.0458458 0.0 
0.0272266 -0.00343766 0.0 
0.353165 -0.0111281 0.0 
0.14638 -0.00990273 0.0 
0.351259 -0.0109182 0.0 
0.00773468 -0.0698546 0.0 
0.602733 -0.00658106 0.0 
0.631213 0.0114754 0.0 
0.795418 -0.00132867 0.0 
0.97172 0.0133113 0.0 
1.08666 0.0242614 0.0 
1.04835 0.024322 0.0 
0.446847 -0.00890625 0.0 
0.293159 -0.0101415 0.0 
0.453806 -0.00638185 0.0 
1.12881 0.0222908 0.0 
0.824249 0.022852 0.0 
1.12217 0.0614827 0.0 
1.07912 -0.0111071 0.0 
0.310582 -0.0125121 0.0 
0.398776 -0.00938847 0.0 
0.102203 -0.00794669 0.0 
0.392743 -0.0109829 0.0 
-0.153266 -0.0609651 0.0 
-0.0140517 -0.0635647 0.0 
0.703138 -0.0350825 0.0 
0.999116 0.0516802 0.0 
-0.142593 -0.0931284 0.0 
0.848533 -0.0100023 0.0 
0.376039 -0.0362272 0.0 
0.00862943 -0.000678359 0.0 
0.310197 -0.00922142 0.0 
0.157959 -0.00982261 0.0 
0.00253185 0.0223429 0.0 
1.05977 0.0208617 0.0 
1.04987 -0.00674635 0.0 
0.265954 -0.0107743 0.0 
1.18004 0.0711639 0.0 
0 0 0.0 
0.0173259 -0.00238433 0.0 
-0.0214805 -0.0742056 0.0 
-0.00674985 0.0214589 0.0 
1.11668 0.0401655 0.0 
-0.0980254 -0.0351074 0.0 
0 0 0.0 
0.0593319 -0.00605151 0.0 
0.661175 -0.00615471 0.0 
0.407979 -0.00375612 0.0 
-0.0316362 -0.0733347 0.0 
-0.0345244 -0.0769704 0.0 
0.963141 0.0070881 0.0 
-0.00447284 0.00330155 0.0 
0.81831 -0.00268253 0.0 
0.609119 -0.000429289 0.0 
1.00137 0.0203622 0.0 
0.0275333 -0.00334398 0.0 
0.264288 -0.00708494 0.0 
0.949451 0.0172302 0.0 
0.11531 -0.0084245 0.0 
0.0299775 -0.0675647 0.0 
0.82671 0.0118043 0.0 
0.143931 -0.00958329 0.0 
0.09113 -0.00586508 0.0 
-0.00322408 -0.0681353 0.0 
0.984978 0.0231998 0.0 
0.215341 -0.00825297 0.0 
0.249493 -0.0122761 0.0 
-0.00180752 0.0164093 0.0 
0.691883 -0.0068375 0.0 
0.74576 0.00467067 0.0 
0.13378 -0.00962567 0.0 
0.0293857 0.0137956 0.0 
0.0581485 -0.00552945 0.0 
-0.00851934 0.00632035 0.0 
0.356672 -0.00954774 0.0 
-0.0577387 -0.0723421 0.0 
0.132578 -0.00848372 0.0 
-0.0239215 0.0156462 0.0 
0.0901928 -0.00668046 0.0 
-0.0357684 -0.0450005 0.0 
0.00157751 0.0226153 0.0 
-0.0346199 0.0252761 0.0 
-0.00924757 0.00680719 0.0 
0.77885 0.0044016 0.0 
0.444515 -0.0426062 0.0 
-0.0208375 0.0197647 0.0 
0.803727 0.0378307 0.0 
-0.0023159 0.019505 0.0 
0 0 0.0 
-0.0154405 -0.0746843 0.0 
0 0 0.0 
1.00116 0.00308203 0.0 
1.14594 0.0457948 0.0 
0.704594 -0.0366311 0.0 
0.673208 -0.000446277 0.0 
0.0437034 -0.00402765 0.0 
0.377066 -0.00820887 0.0 
0.675239 -0.00280304 0.0 
0.595748 0.00549735 0.0 
0.347048 -0.012297 0.0 
-0.019182 -0.0166488 0.0 
-0.00824075 0.0163312 0.0 
0.909717 0.00331856 0.0 
0.814917 0.00340843 0.0 
0.950089 0.0427791 0.0 
0.899668 0.00425449 0.0 
0.445833 -0.00742733 0.0 
0.61153 -0.00851409 0.0 
0.0368778 -0.0521989 0.0 
0.0248525 -0.00195896 0.0 
1.11392 0.0307415 0.0 
0 0 0.0 
0.999244 0.0263671 0.0 
0.342542 -0.00537769 0.0 
1.06474 0.00931892 0.0 
1.08822 0.00259875 0.0 
0.419068 -0.0347682 0.0 
-0.0380151 0.0254564 0.0 
0.388195 -0.00697248 0.0 
0.00921445 0.0213282 0.0 
0.0126818 0.0166402 0.0 
-0.160902 -0.0491102 0.0 
0.95958 0.0162729 0.0 
0.200867 -0.0111499 0.0 
0 0 0.0 
0.55271 -0.0014819 0.0 
0.181403 -0.00986043 0.0 
0.935552 0.0444799 0.0 
-0.0356556 0.0268978 0.0 
0.917959 0.0462439 0.0 
0.0618452 -0.00635496 0.0 
-0.0335429 0.0286988 0.0 
0.323266 -0.00831324 0.0 
0.0407942 -0.00384709 0.0 
-0.0207268 -0.0759896 0.0 
0.722164 0.00562463 0.0 
-0.0118075 0.00893216 0.0 
0.870062 0.00742429 0.0 
0.119578 -0.0092235 0.0 
-0.0163155 0.024736 0.0 