<VTKFile type="UnstructuredGrid" version="0.1" byte_order="LittleEndian">
  <UnstructuredGrid>
    <Piece NumberOfPoints="16424" NumberOfCells="32315">
      <Points>
        <DataArray type = "Float64" NumberOfComponents="3" format="ascii">
1.68794 0.932626 0.0 
1.92402 0.923051 0.0 
1.65461 0.925409 0.0 
1.7227 0.924146 0.0 
1.9739 0.97006 0.0 
2.23028 0.90978 0.0 
1.7994 0.926265 0.0 
2.12364 0.919693 0.0 
1.92463 0.964002 0.0 
1.96759 0.904271 0.0 
1.63818 0.929774 0.0 
1.92096 0.968353 0.0 
2.45982 0.897999 0.0 
2.00293 0.966916 0.0 
1.87117 0.928813 0.0 
1.70803 0.928445 0.0 
2.48691 0.906154 0.0 
2.40366 0.914256 0.0 
1.94871 0.91618 0.0 
1.22359 1.3093 0.0 
1.61827 0.93419 0.0 
1.32711 0.939732 0.0 
1.64861 0.91857 0.0 
1.83469 0.964464 0.0 
1.1293 0.961951 0.0 
1.06933 0.764479 0.0 
1.12575 0.926676 0.0 
1.87225 0.962796 0.0 
1.10957 0.97441 0.0 
1.09965 0.850797 0.0 
1.76557 0.980986 0.0 
1.09966 0.957354 0.0 
2.29354 0.976059 0.0 
1.09781 0.975349 0.0 
0.975793 1.01208 0.0 
1.08425 0.982248 0.0 
1.12281 0.968498 0.0 
1.07069 0.975254 0.0 
3.5 0.539886 0.0 
1.77274 0.88392 0.0 
3.5 0.85229 0.0 
3.5 0.792933 0.0 
2.3152 0.978812 0.0 
3.04215 0.871457 0.0 
1.45123 0.929848 0.0 
1.16515 0.951295 0.0 
1.10275 0.975806 0.0 
2.98497 0.848426 0.0 
1.09352 0.977347 0.0 
1.22704 0.947045 0.0 
1.10566 0.971622 0.0 
2.95102 0.962583 0.0 
1.22506 0.854433 0.0 
1.08528 0.974599 0.0 
1.42283 0.916057 0.0 
1.09984 0.977525 0.0 
1.08911 0.978243 0.0 
3.07918 0.913048 0.0 
1.15541 0.927721 0.0 
1.1176 0.967163 0.0 
1.11952 0.965292 0.0 
2.25312 0.820776 0.0 
1.08683 0.893516 0.0 
1.09846 0.976234 0.0 
3.07094 0.884602 0.0 
2.59512 0.879382 0.0 
1.18488 0.914593 0.0 
2.63852 0.971263 0.0 
3.07311 0.901676 0.0 
1.07887 0.978394 0.0 
0.95201 1.01687 0.0 
1.06478 0.974056 0.0 
1.88209 0.822872 0.0 
2.20173 0.960053 0.0 
0.912293 1.03987 0.0 
0.975608 0.977488 0.0 
1.08435 0.971249 0.0 
0.990583 0.964601 0.0 
2.15378 0.985293 0.0 
1.10046 0.973758 0.0 
1.10484 0.955174 0.0 
1.27363 0.871867 0.0 
1.34635 0.950346 0.0 
1.15179 0.920347 0.0 
1.12688 0.962542 0.0 
1.11483 0.96265 0.0 
1.09472 0.975857 0.0 
1.11639 0.965254 0.0 
1.28858 0.945299 0.0 
1.34809 0.928992 0.0 
1.11417 0.968417 0.0 
1.07249 0.95453 0.0 
1.07716 0.975739 0.0 
1.11382 0.964996 0.0 
1.08973 0.976433 0.0 
2.22502 2 0.0 
3.29746 0.875943 0.0 
1.02656 0.829939 0.0 
1.18122 0.940109 0.0 
1.0869 0.977513 0.0 
1.29023 0.948401 0.0 
1.08649 0.972657 0.0 
1.11085 0.96106 0.0 
2.68266 0.962605 0.0 
1.17337 0.942735 0.0 
1.99309 0.925685 0.0 
0.973285 0.981175 0.0 
1.59586 0.759792 0.0 
1.32908 0.949795 0.0 
1.11133 0.963828 0.0 
1.36416 0.930422 0.0 
1.09176 0.967628 0.0 
1.08486 0.931306 0.0 
1.07998 0.976528 0.0 
3.3237 1.00184 0.0 
1.17693 0.910213 0.0 
1.2515 0.948849 0.0 
1.10333 0.970378 0.0 
1.64465 0.974236 0.0 
1.11995 0.968545 0.0 
0.978056 0.989362 0.0 
1.11031 0.978058 0.0 
2.87626 0.555007 0.0 
1.08735 0.975592 0.0 
1.30372 0.948639 0.0 
1.15231 0.90222 0.0 
1.26114 0.948039 0.0 
1.08156 0.948737 0.0 
2.31102 0.866504 0.0 
1.09403 0.985333 0.0 
1.12545 0.965197 0.0 
1.10028 0.976517 0.0 
1.62786 0.974052 0.0 
1.07585 0.830564 0.0 
1.05734 0.937696 0.0 
1.13473 0.890686 0.0 
0.994053 0.961272 0.0 
1.03844 0.968151 0.0 
0.982844 0.992465 0.0 
1.11188 0.744102 0.0 
3.5 0.273943 0.0 
2.28835 0.455979 0.0 
1.09731 0.977485 0.0 
0.976412 0.983525 0.0 
1.01569 0.960343 0.0 
0.974049 0.985617 0.0 
1.02063 0.965066 0.0 
0.974783 0.972996 0.0 
1.68551 0.97822 0.0 
1.09613 0.783455 0.0 
1.04813 0.958625 0.0 
1.23086 0.950861 0.0 
0.976006 0.988223 0.0 
1.07006 0.895732 0.0 
0.979602 0.969635 0.0 
1.07295 0.876949 0.0 
3.05995 0.961048 0.0 
1.11826 0.971163 0.0 
1.07185 0.799666 0.0 
0.985403 0.966992 0.0 
1.06682 0.914274 0.0 
1.11601 0.972102 0.0 
2.70021 0.753305 0.0 
1.11498 1.28983 0.0 
0.617383 0 0.0 
1.02339 0.958329 0.0 
2.1361 0.942744 0.0 
0.918726 0.724715 0.0 
1.04237 0.785173 0.0 
1.11311 0.973546 0.0 
0.978729 0.991942 0.0 
1.07616 0.855898 0.0 
1.37504 2 0.0 
1.61811 0.974667 0.0 
1.03133 0.955889 0.0 
3.23573 0.893372 0.0 
0.980604 0.989476 0.0 
3.5 0 0.0 
1.65312 0.972228 0.0 
1.85764 0.941736 0.0 
0.980359 0.975584 0.0 
0.948657 1.75021 0.0 
0.983496 0.979339 0.0 
0.935101 0 0.0 
0.950045 2 0.0 
1.05965 0.926641 0.0 
0.30657 2 0.0 
0.983966 0.972058 0.0 
0.299664 0 0.0 
0.288162 0.594603 0.0 
0 0 0.0 
0.986738 0.979681 0.0 
1.07445 0.965268 0.0 
0.524214 0.308061 0.0 
2.07738 0.979666 0.0 
0.98085 0.99164 0.0 
2.00188 0 0.0 
1.73142 0.972982 0.0 
1.03931 0.960515 0.0 
1.25282 0 0.0 
1.09903 0.81482 0.0 
1.50205 1.84299 0.0 
1.19224 1.8336 0.0 
1.12405 0.598993 0.0 
1.27864 1.71339 0.0 
1.70625 0.478055 0.0 
1.05853 0.721669 0.0 
1.31235 0.948137 0.0 
0.973823 0.944461 0.0 
1.08817 0.966467 0.0 
0.673757 0.455565 0.0 
1.13429 0.490964 0.0 
0.785202 0.566772 0.0 
0.979349 0.23463 0.0 
1.37768 0.570438 0.0 
0.984171 1.12821 0.0 
1.23813 0.55041 0.0 
1.14041 0.320023 0.0 
1.0276 0.560091 0.0 
0.957274 0.46585 0.0 
0.83045 0.390457 0.0 
1.43796 0.249313 0.0 
1.3374 0.443985 0.0 
0.96401 0.685243 0.0 
1.21828 0.646393 0.0 
0.967864 0.595564 0.0 
1.10849 0.681292 0.0 
1.07406 0.976118 0.0 
1.78896 0.977132 0.0 
1.11138 0.974554 0.0 
0.983168 0.986043 0.0 
2.15728 0.239655 0.0 
1.68924 0.97498 0.0 
1.11137 0.97946 0.0 
1.02497 0.660738 0.0 
0.931582 0.769484 0.0 
1.03182 0.963783 0.0 
2.84535 0.254157 0.0 
1.5493 0.644923 0.0 
1.24833 0.704127 0.0 
1.03523 0.752812 0.0 
0.734692 0.697023 0.0 
0.803659 1.60497 0.0 
0.875948 0.616667 0.0 
1.35492 0.674433 0.0 
1.00129 0.726598 0.0 
0.88666 0.772432 0.0 
0.317998 0.958605 0.0 
1.30305 0.915768 0.0 
1.02002 0.851814 0.0 
0.232105 1.26892 0.0 
1.1304 0.957113 0.0 
0.949187 1.4402 0.0 
0.692468 1.75928 0.0 
0.63305 0.671856 0.0 
1.17234 0.886015 0.0 
0.982757 0.990442 0.0 
0 1.59916 0.0 
0.613139 2 0.0 
0 2 0.0 
2.38051 0.973833 0.0 
0.979401 1.6062 0.0 
0.316931 1.66454 0.0 
1.80003 2 0.0 
0 0.995326 0.0 
0.962151 1.03505 0.0 
1.66495 0.973409 0.0 
0.97955 0.986086 0.0 
1.11231 0.941505 0.0 
0.996589 0.938282 0.0 
0.970851 0.976463 0.0 
0.469657 0.767378 0.0 
0.932524 1.0469 0.0 
1.03917 0.868391 0.0 
1.00782 0.944332 0.0 
0.985551 0.947523 0.0 
1.28567 0.947399 0.0 
1.0136 0.929923 0.0 
1.01007 0.953346 0.0 
1.03322 0.936061 0.0 
0.509582 0.564793 0.0 
0.98706 0.959114 0.0 
0.858892 0.717286 0.0 
0.553829 1.53265 0.0 
1.05649 0.898861 0.0 
1.79879 0.9784 0.0 
1.14216 1.25545 0.0 
2.93504 0.929008 0.0 
1.74004 0.975293 0.0 
1.01049 1.50866 0.0 
0.986438 0.80168 0.0 
3.5 1.1142 0.0 
1.0296 0.900867 0.0 
1.03017 0.918711 0.0 
0.89274 1.50848 0.0 
0.982653 0.988204 0.0 
0.949187 0.803193 0.0 
0.485832 0.965108 0.0 
0.987081 1.11353 0.0 
0.971782 0.767891 0.0 
1.08398 0.976526 0.0 
1.16017 1.39394 0.0 
0.978763 0.981221 0.0 
0.760042 0.231452 0.0 
0.432234 1.1603 0.0 
0.914697 0.66875 0.0 
0.9662 0.834565 0.0 
1.00883 0.771632 0.0 
0.982772 0.983094 0.0 
1.06594 1.38499 0.0 
0.775336 0.769887 0.0 
1.16558 1.29999 0.0 
1.10105 0.971073 0.0 
2.12228 0.959968 0.0 
1.18674 1.34254 0.0 
0.981221 0.877149 0.0 
1.29886 0.946842 0.0 
1.02031 1.44411 0.0 
1.05996 0.8427 0.0 
1.68796 0.973339 0.0 
0.998139 0.883749 0.0 
1.01035 0.904642 0.0 
1.84827 1.79911 0.0 
0.992581 0.858273 0.0 
1.16772 0.715945 0.0 
1.02057 0.802943 0.0 
1.01802 0.878854 0.0 
3.02876 0.922601 0.0 
1.1285 1.33769 0.0 
1.10063 1.46403 0.0 
1.00206 0.829869 0.0 
0.956517 0.735094 0.0 
1.04129 0.89016 0.0 
0.754858 1.47301 0.0 
0.98606 0.982348 0.0 
0.975392 0.991081 0.0 
0.995704 0.953836 0.0 
1.02267 0.946867 0.0 
0.675142 0.802153 0.0 
1.24963 0.945167 0.0 
1.10704 0.974664 0.0 
0.583318 0.849305 0.0 
0.972633 0.966536 0.0 
0.804733 0.674448 0.0 
1.07573 0.973584 0.0 
1.09611 0.969213 0.0 
1.0482 0.91197 0.0 
1.04174 0.845561 0.0 
1.119 0.969953 0.0 
1.04603 0.928817 0.0 
2.11762 0.939758 0.0 
1.33733 0.900312 0.0 
0.931022 1.0228 0.0 
1.17842 0.945056 0.0 
0.946991 1.02602 0.0 
3.17198 0.974379 0.0 
1.04842 0.819506 0.0 
0.894338 1.04945 0.0 
1.09821 0.972857 0.0 
0.927069 1.03929 0.0 
0.908458 1.05481 0.0 
1.27579 0.942509 0.0 
0.969553 0.987152 0.0 
1.11235 1.22361 0.0 
1.09083 0.872461 0.0 
0.956041 1.05159 0.0 
1.11046 0.97308 0.0 
1.23432 0.948864 0.0 
1.71038 0.975165 0.0 
1.11725 0.968894 0.0 
0.972983 0.988971 0.0 
0.923267 1.02858 0.0 
0.898622 1.02984 0.0 
0.969217 0.971896 0.0 
0.977653 0.955935 0.0 
1.63843 0.976602 0.0 
0.945367 1.03684 0.0 
1.1212 0.967069 0.0 
0.94676 1.04247 0.0 
1.08852 0.979937 0.0 
0.963249 0.969057 0.0 
0.55535 1.06744 0.0 
1.12412 0.967359 0.0 
1.09898 1.695 0.0 
1.18736 0.948813 0.0 
1.09437 0.978125 0.0 
1.15345 0.950448 0.0 
0.948939 0.973713 0.0 
0.973711 0.993439 0.0 
1.25583 1.37179 0.0 
1.15451 0.762306 0.0 
1.17013 0.948586 0.0 
0.959702 1.10879 0.0 
1.18983 0.945363 0.0 
1.12187 1.56989 0.0 
3.43957 0.970171 0.0 
0.952532 0.98543 0.0 
0.953607 0.979828 0.0 
2.25105 0.953691 0.0 
1.09595 0.976734 0.0 
0.96115 0.979673 0.0 
0.971714 0.991998 0.0 
0.958536 0.984628 0.0 
0.933507 1.03106 0.0 
1.22339 1.4626 0.0 
0.410068 1.38274 0.0 
0.633279 1.20613 0.0 
0.979632 1.10341 0.0 
0.648094 1.2859 0.0 
0.645606 1.40192 0.0 
0.964894 0.984727 0.0 
0.957655 0.973632 0.0 
0.989461 1.38912 0.0 
0.774471 1.37226 0.0 
0.96964 0.990306 0.0 
0.968837 1.01729 0.0 
0.98047 0.963642 0.0 
1.1396 0.95624 0.0 
1.19853 0.851556 0.0 
0.93706 0.855944 0.0 
0.790716 0.842799 0.0 
0.963968 1.3399 0.0 
0.965093 1.0189 0.0 
0.87495 0.850051 0.0 
0.55832 1.16684 0.0 
0.975127 1.01801 0.0 
0.858842 1.41781 0.0 
0.977542 1.01612 0.0 
1.27991 0.938316 0.0 
0.941246 1.04864 0.0 
1.04762 0.941829 0.0 
0.963567 0.861041 0.0 
0.725103 1.30537 0.0 
0.976544 0.993633 0.0 
1.18131 0.947989 0.0 
0.955072 1.04338 0.0 
1.10806 0.973533 0.0 
0.529299 1.28379 0.0 
0.923276 1.37302 0.0 
0.867998 0.81543 0.0 
1.00769 1.34624 0.0 
0.903452 0.852505 0.0 
0.836144 0.794101 0.0 
0.960031 1.0278 0.0 
1.26705 0.912435 0.0 
0.761986 0.891818 0.0 
0.939162 1.02446 0.0 
0.581592 0.967879 0.0 
0.654637 0.921459 0.0 
0.637317 1.01674 0.0 
[...]
<PointData>
  <DataArray type = "Float64" Name="Vitesse" NumberOfComponents="3" format="ascii">
1.00252 -0.00344537 0.0 
1.0035 -0.0024648 0.0 
1.00813 -0.00392181 0.0 
1.0075 -0.00345733 0.0 
0.711315 -0.000793105 0.0 
1.00762 -0.00201878 0.0 
1.00418 -0.00301411 0.0 
1.00304 -0.002078 0.0 
0.767594 -9.85187e-06 0.0 
1.0103 -0.00253516 0.0 
1.00631 -0.00426992 0.0 
0.72211 -0.000103002 0.0 
1.00963 -0.00166764 0.0 
0.74242 -0.000628713 0.0 
0.998937 -0.00252901 0.0 
1.00564 -0.00341742 0.0 
1.00694 -0.00158153 0.0 
1.00283 -0.00164782 0.0 
1.00745 -0.00250128 0.0 
1.04033 -0.00447376 0.0 
1.00301 -0.00471006 0.0 
1.03929 0.00270776 0.0 
1.00926 -0.00387179 0.0 
0.766189 0.00107396 0.0 
1.05536 -0.20912 0.0 
0.995096 -0.0262586 0.0 
1.02468 -0.107061 0.0 
0.782284 0.000658952 0.0 
0.888935 -0.227574 0.0 
0.997536 -0.0487049 0.0 
0.60527 0.00101023 0.0 
0.95 -0.157335 0.0 
0.706838 -0.00105767 0.0 
0.873629 -0.181147 0.0 
0.841738 0.114354 0.0 
0.805711 -0.123377 0.0 
1.00028 -0.246353 0.0 
0.88421 -0.0996938 0.0 
1.01547 -0.000432571 0.0 
1.01136 -0.00310753 0.0 
1.01273 -0.000414658 0.0 
1.0139 -0.00042698 0.0 
0.699748 -0.00132687 0.0 
1.012 -0.00082476 0.0 
1.00193 0.00303786 0.0 
1.1229 -0.0663463 0.0 
0.867711 -0.200249 0.0 
1.01296 -0.000875723 0.0 
0.855346 -0.16411 0.0 
1.03539 -0.00215344 0.0 
0.913028 -0.207818 0.0 
0.808183 -1.31737e-05 0.0 
1.02764 -0.0243268 0.0 
0.880184 -0.138248 0.0 
1.01052 0.00611554 0.0 
0.845198 -0.187486 0.0 
0.851277 -0.148009 0.0 
0.992648 -0.00055803 0.0 
1.06445 -0.077082 0.0 
0.981958 -0.231473 0.0 
0.99891 -0.225597 0.0 
1.01243 -0.00199388 0.0 
0.985491 -0.069525 0.0 
0.864028 -0.18345 0.0 
1.01036 -0.000785795 0.0 
1.01142 -0.00148016 0.0 
1.05396 -0.0383962 0.0 
0.755489 -0.000635231 0.0 
1.00402 -0.000716979 0.0 
0.863471 -0.117096 0.0 
0.913274 0.0833687 0.0 
0.890805 -0.0884277 0.0 
1.01252 -0.00280696 0.0 
0.810242 -0.000372439 0.0 
0.963554 0.0639237 0.0 
0.879213 -0.00910584 0.0 
0.893397 -0.135198 0.0 
0.901494 -0.0377245 0.0 
0.66671 -0.00281423 0.0 
0.889001 -0.190745 0.0 
0.965877 -0.162398 0.0 
1.02934 -0.0146708 0.0 
1.02013 0.0148962 0.0 
1.05161 -0.0760559 0.0 
1.04262 -0.214324 0.0 
0.98398 -0.205173 0.0 
0.869553 -0.169527 0.0 
0.984161 -0.219868 0.0 
1.03668 -0.0134613 0.0 
1.03226 0.00755142 0.0 
0.959877 -0.228125 0.0 
0.925653 -0.102757 0.0 
0.878428 -0.114916 0.0 
0.973544 -0.212752 0.0 
0.867333 -0.151884 0.0 
1.00557 0 0.0 
1.01137 -0.000566737 0.0 
0.979633 -0.0324461 0.0 
1.08712 -0.0318182 0.0 
0.860901 -0.141735 0.0 
1.0314 -0.0134489 0.0 
0.888755 -0.141746 0.0 
0.972453 -0.191191 0.0 
0.800323 -0.000193239 0.0 
1.09724 -0.0457237 0.0 
0.999401 -0.00223124 0.0 
0.874476 0.000267429 0.0 
1.0132 -0.00452829 0.0 
1.02665 0.006 0.0 
0.967267 -0.202415 0.0 
1.02665 0.0120594 0.0 
0.909945 -0.154135 0.0 
0.964056 -0.0999621 0.0 
0.873194 -0.121934 0.0 
0.813066 -0.00167986 0.0 
1.05106 -0.045622 0.0 
1.02427 -0.0142811 0.0 
0.916699 -0.196843 0.0 
0.63409 -0.0104396 0.0 
0.985069 -0.24272 0.0 
0.844411 0.00413618 0.0 
0.815165 -0.228513 0.0 
1.01533 -0.000767001 0.0 
0.874375 -0.144523 0.0 
1.03197 -0.00759532 0.0 
1.03648 -0.0634452 0.0 
1.02701 -0.0169342 0.0 
0.940479 -0.113131 0.0 
1.01188 -0.00192763 0.0 
0.669575 -0.134803 0.0 
1.0307 -0.229123 0.0 
0.859426 -0.190264 0.0 
0.624124 -0.0128167 0.0 
0.99114 -0.0402148 0.0 
0.939882 -0.0783947 0.0 
1.01993 -0.0652905 0.0 
0.907603 -0.0403525 0.0 
0.914583 -0.0610782 0.0 
0.81724 -0.0041241 0.0 
1.00133 -0.0243029 0.0 
1.01616 -0.000353993 0.0 
1.01411 -0.00121423 0.0 
0.849343 -0.177998 0.0 
0.864197 -0.00362853 0.0 
0.91891 -0.0542266 0.0 
0.863728 0.00651374 0.0 
0.919112 -0.0569166 0.0 
0.888353 -0.0110723 0.0 
0.611672 -0.00526233 0.0 
0.999121 -0.0302756 0.0 
0.918705 -0.0719373 0.0 
1.02503 -0.0020177 0.0 
0.853021 0.00699817 0.0 
0.97466 -0.0656047 0.0 
0.891897 -0.0210877 0.0 
0.982068 -0.0568567 0.0 
0.81812 0.000103274 0.0 
0.953242 -0.250707 0.0 
0.993387 -0.0325798 0.0 
0.89629 -0.0307052 0.0 
0.962885 -0.0744227 0.0 
0.933731 -0.247299 0.0 
1.01351 -0.00115056 0.0 
1.0444 0.0101451 0.0 
1.00128 0 0.0 
0.921417 -0.0569674 0.0 
0.939068 -0.00106846 0.0 
0.987347 -0.0104808 0.0 
0.9895 -0.0273634 0.0 
0.90631 -0.240565 0.0 
0.834229 0.00999878 0.0 
0.987809 -0.0487463 0.0 
1.01329 0 0.0 
0.608952 -0.0146316 0.0 
0.922814 -0.0604586 0.0 
1.00743 -0.000554098 0.0 
0.837259 -0.0040203 0.0 
1.01675 0 0.0 
0.663312 -0.00786367 0.0 
0.964945 -0.00178602 0.0 
0.880072 -0.0204874 0.0 
1.01155 0.00384236 0.0 
0.869275 -0.0272203 0.0 
1.00343 0 0.0 
1.01154 0 0.0 
0.950311 -0.0758379 0.0 
1.00244 0 0.0 
0.886812 -0.028876 0.0 
0.999741 0 0.0 
0.999102 0.000889804 0.0 
1 0 0.0 
0.868237 -0.0369346 0.0 
0.906108 -0.109422 0.0 
0.99985 -0.000342872 0.0 
0.665002 -0.00226324 0.0 
0.827971 0.00159104 0.0 
1.01354 0 0.0 
0.67359 8.174e-05 0.0 
0.919111 -0.0644907 0.0 
1.00721 0 0.0 
0.998546 -0.0371417 0.0 
1.01258 -0.00140272 0.0 
1.0145 0.000436429 0.0 
1.00305 -0.0127529 0.0 
1.01542 -0.000830875 0.0 
1.01271 -0.00284758 0.0 
0.996039 -0.02061 0.0 
1.03373 -0.00325786 0.0 
0.922674 -0.0192668 0.0 
0.909998 -0.143023 0.0 
0.997912 -0.00129712 0.0 
1.00395 -0.00865101 0.0 
0.995351 -0.00369457 0.0 
1.00272 -0.00255653 0.0 
1.01123 -0.00751756 0.0 
1.04015 0.0754853 0.0 
1.00761 -0.00966639 0.0 
1.00527 -0.00522785 0.0 
0.999748 -0.00992161 0.0 
1.00004 -0.00632857 0.0 
0.999441 -0.0033645 0.0 
1.01003 -0.0022751 0.0 
1.0083 -0.00627575 0.0 
0.991721 -0.0124832 0.0 
1.00856 -0.0137422 0.0 
0.996763 -0.0094131 0.0 
1.00189 -0.0179956 0.0 
0.878932 -0.106972 0.0 
0.634722 0.00172966 0.0 
0.888346 -0.23484 0.0 
0.846109 -0.0210579 0.0 
1.01373 -0.000938584 0.0 
0.645659 -0.00377192 0.0 
0.771674 -0.229069 0.0 
0.996283 -0.0145023 0.0 
0.982933 -0.0123938 0.0 
0.919039 -0.0597078 0.0 
1.01524 -0.000304753 0.0 
1.01186 -0.00507573 0.0 
1.01195 -0.0151349 0.0 
0.991781 -0.0224492 0.0 
0.991012 -0.000547481 0.0 
1.0105 0.00797872 0.0 
0.994109 -0.00659589 0.0 
1.01348 -0.00860332 0.0 
0.990973 -0.017527 0.0 
0.982611 -0.00741905 0.0 
0.998479 0.00418302 0.0 
1.03546 -0.00750703 0.0 
0.973164 -0.0348975 0.0 
1.0008 0.00418672 0.0 
1.05804 -0.18529 0.0 
1.02008 0.0132464 0.0 
1.00674 0.00436865 0.0 
0.99418 0.00107914 0.0 
1.03426 -0.0452425 0.0 
0.827223 -0.010398 0.0 
1 0 0.0 
1.00578 0 0.0 
1 0 0.0 
0.724732 -0.000820626 0.0 
1.01548 0.00635498 0.0 
1.00031 0.00329297 0.0 
1.00952 0 0.0 
1 0 0.0 
0.935419 0.122159 0.0 
0.655026 -0.00669697 0.0 
0.851618 -0.00786709 0.0 
0.998608 -0.136944 0.0 
0.927673 -0.0368939 0.0 
0.886042 -0.00139001 0.0 
0.996185 0.00363183 0.0 
0.962964 0.082135 0.0 
0.972349 -0.0441677 0.0 
0.925555 -0.0455854 0.0 
0.919094 -0.0290746 0.0 
1.03347 -0.0148798 0.0 
0.935875 -0.0463318 0.0 
0.920732 -0.0495251 0.0 
0.935613 -0.0595847 0.0 
0.997338 0.000703564 0.0 
0.907877 -0.0317343 0.0 
0.987661 -0.00595889 0.0 
1.00417 0.00796458 0.0 
0.966555 -0.0612254 0.0 
0.625869 0.00165884 0.0 
1.05144 0.00602108 0.0 
0.961702 -0.00035827 0.0 
0.649079 0.000466828 0.0 
1.02023 0.0085453 0.0 
0.980456 -0.0216365 0.0 
1.00866 -0.000825489 0.0 
0.956219 -0.0490763 0.0 
0.945927 -0.0539509 0.0 
1.01539 0.0109282 0.0 
0.837623 -0.0153959 0.0 
0.978273 -0.0154973 0.0 
0.995826 0.00789452 0.0 
1.04121 0.0867855 0.0 
0.984593 -0.0173686 0.0 
0.870489 -0.133482 0.0 
1.03112 0.00354794 0.0 
0.867343 -0.0126258 0.0 
1.00075 -0.00183212 0.0 
0.999405 0.00883498 0.0 
0.991341 -0.00915522 0.0 
0.971976 -0.0195751 0.0 
0.986876 -0.0220064 0.0 
0.857205 -0.0227456 0.0 
1.03016 0.0109857 0.0 
0.9867 0.000409558 0.0 
1.04345 0.00244906 0.0 
0.908657 -0.189707 0.0 
0.810914 -0.000420641 0.0 
1.03735 0.000532941 0.0 
0.960221 -0.0254713 0.0 
1.03614 -0.00987108 0.0 
1.02349 0.0104757 0.0 
0.98485 -0.0416669 0.0 
0.664039 -0.00351031 0.0 
0.958884 -0.0323743 0.0 
0.950219 -0.0404623 0.0 
1.009 -0.00194731 0.0 
0.967318 -0.0277623 0.0 
1.00712 -0.0199623 0.0 
0.983777 -0.0271743 0.0 
0.963776 -0.0392209 0.0 
0.976232 -0.000405275 0.0 
1.03776 0.00713275 0.0 
1.02478 0.00654117 0.0 
0.975869 -0.0272817 0.0 
0.987584 -0.0140956 0.0 
0.964829 -0.0512693 0.0 
1.0099 0.0120576 0.0 
0.858433 -0.0349348 0.0 
0.847452 0.0165872 0.0 
0.915179 -0.0394156 0.0 
0.926973 -0.0548137 0.0 
0.990324 0.00454752 0.0 
1.03054 -0.0135962 0.0 
0.883699 -0.217173 0.0 
0.993038 0.00601091 0.0 
0.899561 -0.0115156 0.0 
0.990894 -0.00352922 0.0 
0.88657 -0.112258 0.0 
0.910017 -0.169812 0.0 
0.955564 -0.0622563 0.0 
0.979513 -0.0388626 0.0 
0.969302 -0.24748 0.0 
0.943588 -0.0667159 0.0 
0.954937 -0.00126801 0.0 
1.02891 -0.0010094 0.0 
0.941766 0.0689459 0.0 
1.09898 -0.0325148 0.0 
0.931669 0.08787 0.0 
0.777731 -0.000443871 0.0 
0.985989 -0.0342332 0.0 
0.972939 0.0564135 0.0 
0.89406 -0.181613 0.0 
0.957841 0.0745366 0.0 
0.973406 0.065025 0.0 
1.03702 -0.0157822 0.0 
0.870159 0.0177326 0.0 
1.05863 0.0137239 0.0 
0.991994 -0.0580202 0.0 
0.967247 0.112089 0.0 
0.907854 -0.229186 0.0 
1.02791 -0.0054467 0.0 
0.647617 -0.00142791 0.0 
0.969869 -0.238382 0.0 
0.85875 0.0158665 0.0 
0.951269 0.0667557 0.0 
0.962925 0.0531935 0.0 
0.894581 -0.00334268 0.0 
0.911341 -0.0208752 0.0 
0.604718 -0.0130952 0.0 
0.94722 0.0935664 0.0 
1.00032 -0.237038 0.0 
0.954365 0.0976391 0.0 
0.830974 -0.142971 0.0 
0.903414 0.00157517 0.0 
0.996278 0.0121469 0.0 
1.01458 -0.241 0.0 
1.01446 0.00293494 0.0 
1.09284 -0.0102491 0.0 
0.844818 -0.166175 0.0 
1.11217 -0.105672 0.0 
0.912858 0.0176455 0.0 
0.848051 0.0276895 0.0 
1.03204 -0.0043685 0.0 
1.00763 -0.0255913 0.0 
1.11362 -0.0516689 0.0 
1.02001 0.0828124 0.0 
1.08465 -0.0120267 0.0 
1.02012 0.00435583 0.0 
0.7993 -0.000108088 0.0 
0.90198 0.0298827 0.0 
0.903954 0.0217788 0.0 
0.860272 -0.000399966 0.0 
0.859951 -0.173631 0.0 
0.894205 0.0155276 0.0 
0.856723 0.0267302 0.0 
0.893215 0.0251938 0.0 
0.947571 0.0767482 0.0 
1.02516 -0.000650354 0.0 
1.00217 0.00753472 0.0 
1.00084 0.0167434 0.0 
1.03278 0.093922 0.0 
1.0043 0.015866 0.0 
1.00528 0.0128616 0.0 
0.882528 0.0193124 0.0 
0.904153 0.0114588 0.0 
1.02517 0.0152938 0.0 
1.00991 0.0173338 0.0 
0.865127 0.0251318 0.0 
0.880311 0.113901 0.0 
0.901235 -0.0234041 0.0 
1.09308 -0.163063 0.0 
1.02563 -0.0307309 0.0 
0.967133 -0.0128145 0.0 
0.982287 0.00399354 0.0 
1.02579 0.0202422 0.0 
0.893087 0.108676 0.0 
0.973358 -0.00219731 0.0 
0.999251 0.0130015 0.0 
0.86419 0.135324 0.0 
1.01534 0.015622 0.0 
0.848376 0.138226 0.0 
1.03831 -0.0144735 0.0 
0.963206 0.0920093 0.0 
0.93381 -0.0710467 0.0 
0.965338 -0.0195113 0.0 
1.007 0.0188857 0.0 
0.837672 0.022386 0.0 
1.10125 -0.0226154 0.0 
0.953848 0.110628 0.0 
0.898832 -0.220314 0.0 
1.00189 0.0113281 0.0 
1.02079 0.0183093 0.0 
0.978285 -0.00388539 0.0 
1.02953 0.0174227 0.0 
0.970337 -0.00600142 0.0 
0.982276 -0.00213596 0.0 
0.921371 0.111545 0.0 
1.03492 -0.0141658 0.0 
0.981873 0.00923963 0.0 
0.936933 0.0776258 0.0 
0.993207 0.0103762 0.0 
0.989626 0.0103269 0.0 
0.992215 0.0144344 0.0 
0.984774 0.0124979 0.0 
0.985811 0.00705321 0.0 
0.976786 -0.00891179 0.0 
0.926138 -0.23472 0.0 
0.85287 0.1238 0.0 
1.04841 -0.0542499 0.0 
0.875163 0.0106248 0.0 
0.889895 -0.211785 0.0 
0.977616 0.00162123 0.0 
1.08712 -0.178478 0.0 
0.926863 0.0994306 0.0 
1.03811 0.0141086 0.0 
0.973359 -0.0540898 0.0 
1.03533 -0.0109686 0.0 
0.894949 0.00581321 0.0 
0.884577 0.00872275 0.0 
1.04443 0.0165129 0.0 
0.876916 0.126089 0.0 
1.02086 -0.00319983 0.0 
0.933939 0.109385 0.0 
0.926865 -0.14741 0.0 
1.00526 -0.0319418 0.0 
0.866643 0.11853 0.0 
0.884532 0.162105 0.0 
0.915683 -0.128464 0.0 
1.03467 0.0181228 0.0 
0.656665 -0.00968553 0.0 
1.02555 0.0869535 0.0 
1.04598 0.00666443 0.0 
0.927273 -0.118379 0.0 
1.05483 -0.0647257 0.0 
1.09679 -0.178332 0.0 
0.815448 7.93766e-05 0.0 
0.88601 -0.240553 0.0 
0.892804 0.124716 0.0 
0.79897 -0.174443 0.0 
1.03863 -0.0293412 0.0 
0.883932 0.000380613 0.0 
0.94414 0.0158905 0.0 
0.990953 -0.00363912 0.0 
0.916412 0.125061 0.0 
0.630958 0.00104129 0.0 
1.00953 -0.183699 0.0 
1.11478 -0.0364687 0.0 
1.11719 -0.0898553 0.0 
1.10682 -0.0848407 0.0 
0.907707 -0.0854046 0.0 
1.0299 -0.221288 0.0 
1.08174 -0.0787063 0.0 
0.879189 0.138066 0.0 
1.08529 -0.0995273 0.0 
1.0666 0.00412105 0.0 
0.950904 -0.239996 0.0 
0.990114 0.0735186 0.0 
1.02818 -0.207219 0.0 
0.998044 0.00130084 0.0 
1.03399 -0.00218455 0.0 
0.783841 -0.176252 0.0 
1.10129 -0.143045 0.0 
0.870291 0.152153 0.0 
0.96939 0.000132823 0.0 
0.982799 -0.000359381 0.0 
1.02657 -0.135174 0.0 
1.04527 -0.0638934 0.0 
1.0332 -0.117503 0.0 
1.10481 -0.119322 0.0 
0.926384 -0.065359 0.0 
0.744041 -0.228253 0.0 
0.855844 0.151791 0.0 
1.03603 -0.01312 0.0 
1.04113 -0.0138213 0.0 
1.00197 -0.00144594 0.0 
1.07612 -0.00216333 0.0 
1.0579 -0.195879 0.0 
1.00239 0.0433976 0.0 
1.0037 0.020426 0.0 
1.06064 0.0436602 0.0 
0.990147 0.0407949 0.0 
1.02074 0.113677 0.0 
0.622115 -5.27163e-05 0.0 
0.921277 0.0134237 0.0 
1.00142 0.0538659 0.0 
0.945675 -0.0157321 0.0 
1.0207 0.0441071 0.0 
0.908113 0.183982 0.0 
0.979949 0.0134102 0.0 
0.673903 -0.00174825 0.0 
0.901794 -0.0983465 0.0 
0.954166 0.029134 0.0 
0.975043 0.0422305 0.0 
1.0111 0.0228347 0.0 
1.00692 0.0243976 0.0 
1.02573 0.0390796 0.0 
1.01548 0.0616609 0.0 
0.944146 0.00755594 0.0 
0.916144 -0.00989753 0.0 
0.990235 0.0561157 0.0 
1.0157 0.0211945 0.0 
1.01661 0.0283614 0.0 
1.01233 0.0347784 0.0 
1.06575 -0.127576 0.0 
1.02214 0.024413 0.0 
0.89521 0.186563 0.0 
0.960554 0.0160942 0.0 
1.02901 -0.0153894 0.0 
1.02072 0.0182645 0.0 
0.965878 0.00107694 0.0 
0.963618 -0.00577465 0.0 
0.997607 0.0615387 0.0 
0.975085 0.0360541 0.0 
0.955329 -0.00679808 0.0 
0.942925 0.0863183 0.0 
0.981894 0.0615158 0.0 
1.03412 0.00177452 0.0 
0.9724 0.0113337 0.0 
0.951941 0.0138608 0.0 
1.01044 0.0282928 0.0 
0.961562 0.0436731 0.0 
0.969023 0.0177276 0.0 
0.981166 0.0328186 0.0 
1.02433 0.0314039 0.0 
1.0207 0.0543895 0.0 
0.94904 -0.000540252 0.0 
0.958959 0.00755044 0.0 
1.07054 -0.20644 0.0 
1.01118 0.0552983 0.0 
0.948402 0.0219745 0.0 
0.998973 0.0219997 0.0 
0.89781 0.000280723 0.0 
0.952075 0.00565472 0.0 
1.0406 0.0209118 0.0 
0.996244 0.0403094 0.0 
0.969754 0.0244156 0.0 
0.968811 0.0312731 0.0 
1.00631 0.0618822 0.0 
1.033 0.0414024 0.0 
0.987853 0.0341863 0.0 
0.971907 0.00517385 0.0 
0.946041 -0.00758042 0.0 
0.952458 -0.0223218 0.0 
0.96092 -0.0126551 0.0 
0.975983 0.0154913 0.0 
0.94557 0.028695 0.0 
0.950732 -0.0294867 0.0 
0.937789 -0.0114836 0.0 
1.01452 0.0476515 0.0 
1.05636 -0.0311896 0.0 
0.957449 0.000148135 0.0 
1.0425 -0.200355 0.0 
0.937948 0.0342251 0.0 
0.93903 -0.0337515 0.0 
0.939187 0.0233545 0.0 
1.0327 0.0814823 0.0 
0.975108 0.0284801 0.0 
0.980596 0.0284105 0.0 
0.979924 0.0239227 0.0 
0.983538 0.0190852 0.0 
0.98849 0.0226665 0.0 
0.945985 0.125204 0.0 
0.98449 0.0244125 0.0 
0.996383 0.0174378 0.0 
0.977013 0.00874488 0.0 
0.994161 0.023059 0.0 
0.988196 0.0151824 0.0 
1.00283 0.0258047 0.0 
0.975593 0.0212505 0.0 
1.00542 0.0309855 0.0 
1.07072 0.158608 0.0 
0.997787 0.0287634 0.0 
1.03027 0.0261968 0.0 
1.03442 0.1559 0.0 
0.791171 -0.000276268 0.0 
1.05647 0.169251 0.0 
1.05304 0.00408813 0.0 
1.04605 0.126103 0.0 
1.04048 0.140936 0.0 
1.07474 -0.190327 0.0 
1.02627 -0.00857555 0.0 
1.00597 0.0374266 0.0 
0.745921 -0.171707 0.0 
0.831604 -0.191276 0.0 
0.966096 0.00974057 0.0 
1.08934 -0.193959 0.0 
0.891876 0.139871 0.0 
0.922172 -0.136359 0.0 
0.774301 -0.236777 0.0 
0.962705 0.0246955 0.0 
0.843282 -0.000112759 0.0 
0.825958 -0.000198989 0.0 
1.05283 0.199057 0.0 
0.957829 0.121849 0.0 
1.06087 0.14927 0.0 
0.955489 0.0211947 0.0 
0.90339 0.13309 0.0 
0.884917 0.150827 0.0 
0.906778 0.115002 0.0 
0.798274 0.000831519 0.0 
1.06071 0.0326807 0.0 
1.0232 -0.00939742 0.0 
0.886059 -0.132321 0.0 
0.937135 0.0140219 0.0 
1.06927 0.0419558 0.0 
0.982109 0.0401986 0.0 
0.865652 0.169589 0.0 
0.998292 0.076912 0.0 
1.048 0.15515 0.0 
1.01932 0.203619 0.0 
0.870061 -0.109712 0.0 
0.765921 -0.156447 0.0 
0.911608 0.15428 0.0 
1.02361 0.00491798 0.0 
0.851438 -0.197205 0.0 
0.913888 0.140592 0.0 
0.891588 -0.125397 0.0 
0.972524 -0.0125966 0.0 
1.08005 0.128791 0.0 
0.650521 -0.00240251 0.0 
0.887215 -0.0015879 0.0 
1.03795 -0.0135591 0.0 
1.00339 -0.00091868 0.0 
0.843388 -0.20452 0.0 
1.05854 -0.0197235 0.0 
1.0527 0.139732 0.0 
0.925964 0.146906 0.0 
0.84321 0.000178367 0.0 
0.838597 -0.000166476 0.0 
0.934496 0.00503434 0.0 
0.93198 -0.0180584 0.0 
1.03963 0.0413784 0.0 
1.01541 0.040725 0.0 
0.94501 0.103629 0.0 
0.883289 0.178692 0.0 
1.11992 -0.0203478 0.0 
0.936076 0.133774 0.0 
0.679787 -0.00180649 0.0 
1.00992 0.0419637 0.0 
0.940731 -0.00159148 0.0 
0.727131 -0.000777493 0.0 
0.931019 0.161609 0.0 
0.821843 -0.14556 0.0 
1.05036 0.0149358 0.0 
1.01906 0.0362784 0.0 
1.01316 -0.0003571 0.0 
1.08223 0.112554 0.0 
0.926841 0.119882 0.0 
1.04469 0.0363955 0.0 
0.828476 -0.158183 0.0 
0.926612 0.131968 0.0 
0.929685 0.0205441 0.0 
1.0019 -0.000471713 0.0 
1.05885 -0.0907467 0.0 
0.951759 0.148047 0.0 
0.657512 -0.00294303 0.0 
0.837875 -0.000163667 0.0 
0.882605 0.19658 0.0 
1.00859 0.186747 0.0 
1.03043 0.0340085 0.0 
1.00534 -0.000346764 0.0 
0.899713 0.151446 0.0 
1.09474 0.196741 0.0 
0.967666 0.0738899 0.0 
1.03641 0.105913 0.0 
0.982975 0.0792811 0.0 
1.05072 0.0301167 0.0 
1.02427 0.185219 0.0 
0.994535 0.0471397 0.0 
1.03208 -0.0286097 0.0 
0.805105 -0.000253365 0.0 
1.0049 0.202857 0.0 
0.838089 0.0858053 0.0 
0.832898 -0.000298292 0.0 
0.879497 -5.12581e-05 0.0 
1.04626 0.046989 0.0 
1.02404 -0.0765382 0.0 
1.0069 -0.00309628 0.0 
1.02247 -0.0374933 0.0 
1.00027 0.0357132 0.0 
1.02667 -0.0183341 0.0 
0.938197 -0.167357 0.0 
0.920426 0.0902919 0.0 
0.919484 0.000328053 0.0 
0.917089 -0.152699 0.0 
0.915086 0.202389 0.0 
1.03653 0.0503251 0.0 
1.0371 0.0254686 0.0 
0.919926 0.000187735 0.0 
0.940825 -0.0226519 0.0 
0.982232 0.111448 0.0 
0.921991 0.1804 0.0 
1.00109 -0.000498523 0.0 
0.941601 0.143562 0.0 
0.954624 0.134957 0.0 
0.992468 -0.000235492 0.0 
0.995866 -0.00040365 0.0 
1.06412 0.0215593 0.0 
0.982291 0.0699489 0.0 
0.971069 9.30697e-06 0.0 
0.6196 -0.000207307 0.0 
1.03698 0.0332756 0.0 
1.00956 -0.000420086 0.0 
1.0428 0.0282064 0.0 
1.00974 -0.0104188 0.0 
1.02074 0.218144 0.0 
0.92396 0.191988 0.0 
0.852181 0.0859833 0.0 
1.02914 0.170584 0.0 
1.02168 -0.0548669 0.0 
1.0273 -0.00458677 0.0 
0.975841 0.0744145 0.0 
0.961527 0.0344352 0.0 
0.978692 0.0477262 0.0 
0.840687 -0.00040985 0.0 
0.94285 2.69894e-05 0.0 
1.07173 0.121438 0.0 
0.992988 -0.000397594 0.0 
0.903221 0.0887925 0.0 
1.03985 -0.0536386 0.0 
1.00707 0.0931214 0.0 
0.984449 0.0902574 0.0 
1.03432 -0.086156 0.0 
1.00025 0.0697535 0.0 
1.01163 -0.0004178 0.0 
0.953638 0.086067 0.0 
0.972856 0.0842189 0.0 
0.990694 0.0191882 0.0 
0.796786 -0.231258 0.0 
1.10118 0.148586 0.0 
0.929123 0.011176 0.0 
1.00808 0.0490221 0.0 
0.99144 0.0286238 0.0 
1.03175 -0.0169792 0.0 
1.06411 0.0663465 0.0 
1.05708 -0.0549201 0.0 
0.934871 -0.000275424 0.0 
0.915111 0.101766 0.0 
0.949233 0.000229162 0.0 
1.09658 0.175106 0.0 
1.06229 0.1308 0.0 
1.0007 -0.000698796 0.0 
0.930415 -0.0265872 0.0 
0.982029 0.0542331 0.0 
1.05435 0.0508887 0.0 
1.08238 0.167862 0.0 
1.06719 0.184529 0.0 
1.06737 0.203682 0.0 
1.0821 0.190053 0.0 
1.00789 0.0763032 0.0 
1.09349 0.14075 0.0 
0.886644 0.0895493 0.0 
0.994009 0.0347924 0.0 
0.87024 0.104282 0.0 
0.965633 3.07065e-05 0.0 
0.764921 -0.00072613 0.0 
1.02785 0.0477049 0.0 
0.984628 -1.86849e-05 0.0 
0.986198 0.0476847 0.0 
0.820881 0.00841632 0.0 
1.04179 0.0974646 0.0 
1.0233 0.0659179 0.0 
0.981352 -0.0001472 0.0 
1.03099 0.0586305 0.0 
0.973909 -0.000165713 0.0 
0.927376 -0.010197 0.0 
1.08967 0.127507 0.0 
1.03254 0.00361998 0.0 
0.844672 0.0993919 0.0 
0.938202 0.0964935 0.0 
0.994659 0.112434 0.0 
0.86048 0.0953075 0.0 
0.741248 0.000919802 0.0 
0.98699 -0.000312046 0.0 
0.795006 -0.194173 0.0 
0.923064 0.0015506 0.0 
1.04758 0.0689789 0.0 
0.95625 2.14695e-05 0.0 
1.01432 0.103957 0.0 
1.03612 0.181026 0.0 
0.916309 -0.221317 0.0 
1.0388 0.0660142 0.0 
0.938527 0.207849 0.0 
0.893706 0.0954539 0.0 
1.01728 0.0910819 0.0 