<VTKFile type="UnstructuredGrid" version="0.1" byte_order="LittleEndian">
  <UnstructuredGrid>
    <Piece NumberOfPoints="16475" NumberOfCells="32407">
      <Points>
        <DataArray type = "Float64" NumberOfComponents="3" format="ascii">
1.24269 0.958042 0.0 
1.2341 0.965232 0.0 
1.53303 0.983862 0.0 
1.18496 0.959149 0.0 
1.33731 0.968219 0.0 
1.21067 0.957936 0.0 
1.52152 0.958911 0.0 
1.33675 0.972942 0.0 
1.25391 0.958726 0.0 
1.3976 0.971864 0.0 
1.32571 0.969274 0.0 
1.24037 0.96864 0.0 
1.35143 0.969397 0.0 
1.53445 0.963651 0.0 
1.47728 0.965435 0.0 
1.59893 0.975513 0.0 
1.24175 0.972428 0.0 
1.3309 0.969023 0.0 
1.24666 0.966566 0.0 
1.37709 0.971667 0.0 
1.21786 0.959639 0.0 
1.23673 0.958384 0.0 
1.20696 0.959808 0.0 
1.5777 0.977707 0.0 
1.36729 0.974621 0.0 
1.38499 0.972939 0.0 
1.2268 0.957823 0.0 
1.22221 0.981916 0.0 
1.20878 0.981666 0.0 
1.23448 0.976699 0.0 
1.21215 0.981497 0.0 
1.48941 0.957463 0.0 
1.22555 0.973718 0.0 
1.39939 0.964509 0.0 
1.37186 0.974913 0.0 
1.66643 0.984713 0.0 
1.54766 0.980635 0.0 
1.37145 0.976033 0.0 
1.22838 0.97875 0.0 
1.39231 0.977784 0.0 
1.43509 0.959986 0.0 
1.50813 0.969971 0.0 
1.25008 0.969472 0.0 
1.42572 0.978646 0.0 
1.24497 0.965515 0.0 
1.22412 0.970044 0.0 
1.4397 0.978089 0.0 
1.22474 0.981486 0.0 
1.7968 0.980128 0.0 
1.247 0.969415 0.0 
1.35976 0.97535 0.0 
1.36166 0.969286 0.0 
1.2234 0.967721 0.0 
1.53299 0.973033 0.0 
1.24029 0.970792 0.0 
1.84478 0.975739 0.0 
1.24804 0.965833 0.0 
1.64496 0.975405 0.0 
1.43883 0.964333 0.0 
1.22598 0.979414 0.0 
1.22199 0.97465 0.0 
1.36562 0.972649 0.0 
1.21852 0.980436 0.0 
1.21872 0.981419 0.0 
1.43606 0.976807 0.0 
1.2274 0.961052 0.0 
1.57934 0.974922 0.0 
1.21268 0.980121 0.0 
1.34698 0.971316 0.0 
1.24462 0.965001 0.0 
1.23563 0.974783 0.0 
1.36961 0.96731 0.0 
1.23793 0.963927 0.0 
1.35773 0.971127 0.0 
1.24658 0.970559 0.0 
1.23665 0.97366 0.0 
1.5612 0.985202 0.0 
1.23409 0.975598 0.0 
1.36567 0.961423 0.0 
1.47337 0.963631 0.0 
1.54249 0.974875 0.0 
1.22525 0.97746 0.0 
1.7309 0.974695 0.0 
1.85507 0.979435 0.0 
1.45571 0.964323 0.0 
1.24731 0.960661 0.0 
1.62278 0.976017 0.0 
1.24897 0.968068 0.0 
1.23418 0.965937 0.0 
1.4029 0.970508 0.0 
1.35686 0.965273 0.0 
1.24965 0.965142 0.0 
1.23129 0.977434 0.0 
1.35855 0.972096 0.0 
1.23069 0.976683 0.0 
1.75576 0.980814 0.0 
1.46066 0.967198 0.0 
1.30818 0.966937 0.0 
1.23787 0.971484 0.0 
1.38856 0.973261 0.0 
1.23642 0.961557 0.0 
1.48793 0.96577 0.0 
1.40369 0.966776 0.0 
1.24261 0.968353 0.0 
1.2386 0.966192 0.0 
1.22589 0.968963 0.0 
1.38759 0.963268 0.0 
1.82417 0.977981 0.0 
1.32212 0.968934 0.0 
1.75456 0.973356 0.0 
1.39439 0.978783 0.0 
1.38296 0.967215 0.0 
1.34981 0.961495 0.0 
1.4874 0.980643 0.0 
1.35684 0.961436 0.0 
1.32957 0.965841 0.0 
1.41409 0.975621 0.0 
1.57894 0.960526 0.0 
1.24216 0.975595 0.0 
1.40797 0.964065 0.0 
1.37068 0.965849 0.0 
1.37567 0.974384 0.0 
1.45765 0.965875 0.0 
1.41446 0.968208 0.0 
1.33462 0.965333 0.0 
1.34004 0.965412 0.0 
1.41752 0.961739 0.0 
1.55809 0.978265 0.0 
1.46262 0.980607 0.0 
1.34978 0.960342 0.0 
1.48719 0.973405 0.0 
1.34305 0.967957 0.0 
1.33742 0.97015 0.0 
1.56689 0.981547 0.0 
1.4367 0.979416 0.0 
1.50305 0.982121 0.0 
1.47237 0.977304 0.0 
1.45048 0.96054 0.0 
1.41808 0.979784 0.0 
1.35711 0.966643 0.0 
1.20017 0.958578 0.0 
1.57013 0.979021 0.0 
1.60252 0.972524 0.0 
1.37778 0.96393 0.0 
1.23332 0.960001 0.0 
1.6146 0.969105 0.0 
1.37455 0.958344 0.0 
1.32356 0.966446 0.0 
1.34383 0.96231 0.0 
1.31849 0.96224 0.0 
1.23775 0.975855 0.0 
1.38724 0.960464 0.0 
1.18769 0.959414 0.0 
1.55691 0.982696 0.0 
1.37123 0.969471 0.0 
1.40167 0.977666 0.0 
1.5221 0.960846 0.0 
1.52247 0.979424 0.0 
1.65521 0.968485 0.0 
1.3937 0.959969 0.0 
1.33796 0.971935 0.0 
1.6748 0.970666 0.0 
1.31778 0.960364 0.0 
1.43389 0.9672 0.0 
1.45873 0.961426 0.0 
1.43525 0.980445 0.0 
1.58099 0.980785 0.0 
1.4983 0.975541 0.0 
1.34263 0.971538 0.0 
1.30064 0.968199 0.0 
1.56304 0.961583 0.0 
1.39908 0.969689 0.0 
1.42982 0.98022 0.0 
1.29766 0.962405 0.0 
1.52131 0.962712 0.0 
1.58345 0.978089 0.0 
1.82351 0.974441 0.0 
1.34072 0.969067 0.0 
1.3904 0.966465 0.0 
1.42961 0.97611 0.0 
1.22813 0.97574 0.0 
1.37864 0.960218 0.0 
1.39801 0.976885 0.0 
1.36573 0.973555 0.0 
1.4977 0.966168 0.0 
1.8018 0.976715 0.0 
1.59282 0.976594 0.0 
1.19311 0.958732 0.0 
1.36832 0.968595 0.0 
1.38304 0.965831 0.0 
1.20573 0.957951 0.0 
1.36792 0.975573 0.0 
1.35035 0.970483 0.0 
1.36186 0.958382 0.0 
1.46055 0.959956 0.0 
1.42409 0.970138 0.0 
1.40985 0.962619 0.0 
1.52005 0.964636 0.0 
1.41606 0.969739 0.0 
1.22922 0.974523 0.0 
1.3808 0.963066 0.0 
1.28204 0.964988 0.0 
1.3887 0.965294 0.0 
1.48993 0.976356 0.0 
1.43982 0.980707 0.0 
1.38066 0.961127 0.0 
1.41017 0.970857 0.0 
1.31392 0.969641 0.0 
1.3704 0.970349 0.0 
1.49718 0.980755 0.0 
1.5991 0.967883 0.0 
1.31885 0.961328 0.0 
1.43232 0.96923 0.0 
1.29894 0.955186 0.0 
1.23806 0.972248 0.0 
1.67356 0.977154 0.0 
1.65132 0.9664 0.0 
1.76515 0.977538 0.0 
1.34516 0.96338 0.0 
1.65415 0.9784 0.0 
1.5346 0.981827 0.0 
1.3328 0.963848 0.0 
1.39347 0.973039 0.0 
1.35298 0.971446 0.0 
1.22912 0.97314 0.0 
1.40757 0.96127 0.0 
1.55579 0.981433 0.0 
1.5011 0.960781 0.0 
1.22544 0.980852 0.0 
1.36626 0.963622 0.0 
1.2272 0.976808 0.0 
1.34889 0.967235 0.0 
1.35821 0.97433 0.0 
1.43748 0.981791 0.0 
1.23225 0.95892 0.0 
1.22186 0.9809 0.0 
1.64588 0.970391 0.0 
1.49766 0.971562 0.0 
1.23206 0.972507 0.0 
1.44443 0.981152 0.0 
1.31765 0.96873 0.0 
1.21812 0.979668 0.0 
1.22242 0.977556 0.0 
1.22729 0.971477 0.0 
1.22425 0.975749 0.0 
1.49236 0.960086 0.0 
1.4516 0.959199 0.0 
1.62869 0.981517 0.0 
1.3458 0.965455 0.0 
1.23317 0.960819 0.0 
1.46682 0.981749 0.0 
1.36609 0.969974 0.0 
1.23126 0.967355 0.0 
1.54609 0.976115 0.0 
1.45635 0.981986 0.0 
1.33767 0.963131 0.0 
1.62638 0.959087 0.0 
1.22391 0.958699 0.0 
1.42603 0.968265 0.0 
1.2478 0.959472 0.0 
1.35694 0.968939 0.0 
1.6271 0.970687 0.0 
1.68686 0.975362 0.0 
1.63551 0.972461 0.0 
1.58655 0.982192 0.0 
1.22465 0.978296 0.0 
1.38498 0.977956 0.0 
1.22552 0.980137 0.0 
1.36754 0.971053 0.0 
1.48489 0.979253 0.0 
1.29679 0.96715 0.0 
1.53076 0.961742 0.0 
1.70678 0.981392 0.0 
1.24019 0.973833 0.0 
1.25275 0.967077 0.0 
1.39608 0.967462 0.0 
1.22364 0.971924 0.0 
1.23049 0.97948 0.0 
1.51001 0.980435 0.0 
1.23066 0.968313 0.0 
1.44832 0.962017 0.0 
1.3503 0.966002 0.0 
1.46982 0.967184 0.0 
1.4286 0.966042 0.0 
1.21206 0.959386 0.0 
1.46365 0.963676 0.0 
1.35386 0.968066 0.0 
1.38427 0.973973 0.0 
1.24299 0.966203 0.0 
1.4495 0.971527 0.0 
1.21865 0.97894 0.0 
1.4519 0.983349 0.0 
1.24713 0.968657 0.0 
1.31226 0.960922 0.0 
1.23275 0.974708 0.0 
1.35337 0.974514 0.0 
1.23162 0.973665 0.0 
1.34437 0.97013 0.0 
1.22835 0.977933 0.0 
1.54036 0.961776 0.0 
1.41611 0.96046 0.0 
1.38773 0.97957 0.0 
1.3017 0.963145 0.0 
1.34996 0.973579 0.0 
1.23349 0.968657 0.0 
1.50489 0.974346 0.0 
1.21546 0.979898 0.0 
1.5848 0.975718 0.0 
1.23884 0.95877 0.0 
1.22079 0.960217 0.0 
1.2323 0.980201 0.0 
1.61279 0.97531 0.0 
1.31303 0.968616 0.0 
1.51046 0.982971 0.0 
1.23518 0.96677 0.0 
1.77157 0.97894 0.0 
1.34523 0.974146 0.0 
1.22411 0.960593 0.0 
1.63088 0.967165 0.0 
1.30057 0.956403 0.0 
1.21574 0.960798 0.0 
1.36811 0.962426 0.0 
1.4666 0.96232 0.0 
1.63438 0.965098 0.0 
1.48873 0.958979 0.0 
1.73196 0.980448 0.0 
1.55047 0.9608 0.0 
1.60023 0.971046 0.0 
1.36083 0.970264 0.0 
1.23188 0.981021 0.0 
1.88075 0.976815 0.0 
1.25464 0.966235 0.0 
1.52438 0.983122 0.0 
1.47792 0.962055 0.0 
1.51206 0.973696 0.0 
1.52979 0.981237 0.0 
1.36414 0.971973 0.0 
1.41982 0.962952 0.0 
1.66046 0.98307 0.0 
1.3613 0.962357 0.0 
1.25141 0.968703 0.0 
1.60458 0.983084 0.0 
1.24345 0.970061 0.0 
1.3811 0.97702 0.0 
1.45237 0.980962 0.0 
1.25047 0.959819 0.0 
1.68197 0.981273 0.0 
1.33922 0.970951 0.0 
1.42539 0.979672 0.0 
1.68996 0.976644 0.0 
1.23095 0.959529 0.0 
1.24008 0.974549 0.0 
1.42728 0.960158 0.0 
1.21998 0.978016 0.0 
1.61234 0.971204 0.0 
1.24091 0.971591 0.0 
1.46969 0.960955 0.0 
1.39277 0.97648 0.0 
1.44115 0.960959 0.0 
1.43219 0.979019 0.0 
1.25229 0.965636 0.0 
1.3645 0.966639 0.0 
1.44814 0.963537 0.0 
1.28728 0.965924 0.0 
1.34705 0.968642 0.0 
1.24272 0.960046 0.0 
1.50962 0.963602 0.0 
1.24166 0.964569 0.0 
1.23702 0.960241 0.0 
1.29865 0.96169 0.0 
1.53524 0.979506 0.0 
1.304 0.962131 0.0 
1.66133 0.970062 0.0 
1.36178 0.967819 0.0 
1.49504 0.979439 0.0 
1.32192 0.970003 0.0 
1.65378 0.98166 0.0 
1.51247 0.978903 0.0 
1.22232 0.971079 0.0 
1.4462 0.968676 0.0 
1.53565 0.974347 0.0 
1.48676 0.96337 0.0 
1.43905 0.968496 0.0 
1.39523 0.970723 0.0 
1.36909 0.972029 0.0 
1.56685 0.969534 0.0 
1.21248 0.960259 0.0 
1.31346 0.963284 0.0 
1.31054 0.964345 0.0 
1.47657 0.983145 0.0 
1.38286 0.96852 0.0 
1.38647 0.97643 0.0 
1.39714 0.961007 0.0 
1.24437 0.971663 0.0 
1.39567 0.975648 0.0 
1.42423 0.961125 0.0 
1.68877 0.98293 0.0 
1.4279 0.964673 0.0 
1.3406 0.974117 0.0 
1.57701 0.969138 0.0 
1.49812 0.964453 0.0 
1.23988 0.960881 0.0 
1.54535 0.982833 0.0 
1.51087 0.961801 0.0 
1.53332 0.977762 0.0 
1.40909 0.967718 0.0 
1.20884 0.980924 0.0 
1.66487 0.975802 0.0 
1.39817 0.965973 0.0 
1.37648 0.966638 0.0 
1.29574 0.963811 0.0 
1.42225 0.981008 0.0 
1.36994 0.959519 0.0 
1.54533 0.981793 0.0 
1.23437 0.973887 0.0 
1.43304 0.961159 0.0 
1.37289 0.971195 0.0 
1.49974 0.981468 0.0 
1.23156 0.975792 0.0 
1.24854 0.967293 0.0 
1.52725 0.975404 0.0 
1.21497 0.980852 0.0 
1.4028 0.963357 0.0 
1.28379 0.963237 0.0 
1.49549 0.976873 0.0 
1.35241 0.963647 0.0 
1.23651 0.962464 0.0 
1.45953 0.982895 0.0 
1.72113 0.982409 0.0 
1.31796 0.969799 0.0 
1.61221 0.984716 0.0 
1.25163 0.967776 0.0 
1.44845 0.980057 0.0 
1.28372 0.965553 0.0 
1.47535 0.980201 0.0 
1.59124 0.973693 0.0 
1.22362 0.961851 0.0 
1.375 0.969965 0.0 
1.23124 0.966501 0.0 
1.54864 0.959372 0.0 
1.56841 0.976571 0.0 
1.38362 0.974902 0.0 
1.33338 0.967512 0.0 
1.42026 0.964401 0.0 
1.40043 0.975931 0.0 
1.39156 0.964226 0.0 
1.42804 0.96335 0.0 
1.73855 0.978734 0.0 
[...]
<PointData>
  <DataArray type = "Float64" Name="Vitesse" NumberOfComponents="3" format="ascii">
0.99367 0.0506069 0.0 
0.923478 0.0799446 0.0 
0.501752 0.0244507 0.0 
1.14094 -0.0331976 0.0 
0.537617 -0.0174043 0.0 
1.08667 0.0445567 0.0 
0.873841 0.00612381 0.0 
0.376263 -0.0287875 0.0 
0.963529 0.0391295 0.0 
0.618705 -0.0183824 0.0 
0.479373 -0.00831144 0.0 
0.817117 0.0867285 0.0 
0.529649 -0.0275767 0.0 
0.791415 0.00837327 0.0 
0.810154 0.0156612 0.0 
0.567036 0.00100623 0.0 
0.69097 0.101708 0.0 
0.494815 -0.0137546 0.0 
0.847899 0.0703421 0.0 
0.555917 -0.0317301 0.0 
1.05443 0.059656 0.0 
1.00592 0.0566411 0.0 
1.08838 0.0428455 0.0 
0.54247 0.00805491 0.0 
0.454018 -0.0470973 0.0 
0.554767 -0.0314398 0.0 
1.03707 0.0580182 0.0 
0.417113 0.128016 0.0 
0.422888 0.0744077 0.0 
0.571493 0.126325 0.0 
0.433663 0.0913686 0.0 
0.911798 0.009627 0.0 
0.712268 0.114276 0.0 
0.796676 -0.00059392 0.0 
0.466155 -0.0465729 0.0 
0.549744 -0.0152306 0.0 
0.521528 0.0191729 0.0 
0.444841 -0.0510284 0.0 
0.518375 0.131723 0.0 
0.490055 -0.0414164 0.0 
0.903169 0.0136729 0.0 
0.707086 0.0176754 0.0 
0.750724 0.0774485 0.0 
0.557829 -0.00898735 0.0 
0.878727 0.0688972 0.0 
0.840144 0.100964 0.0 
0.585502 0.00359383 0.0 
0.428301 0.133001 0.0 
0.613351 -0.00273623 0.0 
0.766155 0.0813418 0.0 
0.410674 -0.0509544 0.0 
0.56664 -0.0280724 0.0 
0.90795 0.0921986 0.0 
0.628104 0.0179371 0.0 
0.752335 0.0959259 0.0 
0.651669 -0.000500843 0.0 
0.860863 0.0658454 0.0 
0.588999 -0.00858486 0.0 
0.835396 0.0136717 0.0 
0.500579 0.130747 0.0 
0.688522 0.114185 0.0 
0.489238 -0.0397087 0.0 
0.474691 0.116424 0.0 
0.438299 0.117575 0.0 
0.603223 0.00234824 0.0 
1.01007 0.0683315 0.0 
0.573084 0.00722952 0.0 
0.486064 0.0949018 0.0 
0.454716 -0.0320115 0.0 
0.891129 0.0676321 0.0 
0.635865 0.117646 0.0 
0.653346 -0.0204146 0.0 
0.934535 0.0719759 0.0 
0.498401 -0.0345195 0.0 
0.731494 0.087078 0.0 
0.671425 0.112104 0.0 
0.500135 0.0136712 0.0 
0.613062 0.121829 0.0 
0.826419 -0.0098121 0.0 
0.840816 0.0148995 0.0 
0.590736 0.017653 0.0 
0.574772 0.124988 0.0 
0.640721 -0.00566927 0.0 
0.627571 -0.000891977 0.0 
0.836327 0.0154927 0.0 
0.956035 0.0515307 0.0 
0.570793 -0.00540447 0.0 
0.798423 0.0729491 0.0 
0.908587 0.082407 0.0 
0.663334 -0.0107339 0.0 
0.689817 -0.0174125 0.0 
0.871408 0.0613217 0.0 
0.55708 0.12914 0.0 
0.475573 -0.0382716 0.0 
0.586834 0.126325 0.0 
0.599024 -0.0055278 0.0 
0.787263 0.0161686 0.0 
0.603314 0.00760554 0.0 
0.740341 0.101488 0.0 
0.560067 -0.029864 0.0 
0.974693 0.0657945 0.0 
0.797872 0.0153155 0.0 
0.751135 -0.00210221 0.0 
0.816104 0.0826797 0.0 
0.886511 0.0793115 0.0 
0.865343 0.0972468 0.0 
0.808362 -0.00416995 0.0 
0.632255 -0.00126978 0.0 
0.492153 -0.00407604 0.0 
0.660862 -0.0037893 0.0 
0.481262 -0.0424079 0.0 
0.69302 -0.01468 0.0 
0.808359 -0.0126708 0.0 
0.552808 0.0259596 0.0 
0.816328 -0.0116168 0.0 
0.631312 -0.0102542 0.0 
0.586978 -0.0137766 0.0 
0.810854 0.00126672 0.0 
0.575786 0.116893 0.0 
0.817897 0.00404948 0.0 
0.702002 -0.0162346 0.0 
0.49073 -0.0426306 0.0 
0.810198 0.0157858 0.0 
0.737266 0.00124328 0.0 
0.655375 -0.0125237 0.0 
0.656657 -0.0150957 0.0 
0.871087 0.00967412 0.0 
0.539988 0.0150488 0.0 
0.558101 0.017036 0.0 
0.842064 -0.0119258 0.0 
0.665892 0.0210998 0.0 
0.559302 -0.0205346 0.0 
0.464483 -0.0216429 0.0 
0.514025 0.0120297 0.0 
0.560753 -0.000342285 0.0 
0.526802 0.0282635 0.0 
0.608272 0.0205318 0.0 
0.893408 0.0144561 0.0 
0.526001 -0.0186209 0.0 
0.64177 -0.0204552 0.0 
1.11383 0.022124 0.0 
0.53158 0.0108686 0.0 
0.604081 0.000455315 0.0 
0.774225 -0.00964553 0.0 
1.00151 0.0630079 0.0 
0.655674 -0.00161713 0.0 
0.905373 -0.00429441 0.0 
0.604531 -0.00583988 0.0 
0.777588 -0.0131076 0.0 
0.784394 -0.00669257 0.0 
0.587681 0.121188 0.0 
0.872249 -0.000960346 0.0 
1.13674 -0.0213778 0.0 
0.507406 0.0159622 0.0 
0.593306 -0.026547 0.0 
0.519762 -0.0315457 0.0 
0.846263 0.0075618 0.0 
0.545312 0.0253441 0.0 
0.678717 -0.00562904 0.0 
0.887226 0.00199074 0.0 
0.407508 -0.0269893 0.0 
0.65973 -0.00714868 0.0 
0.845139 -0.00819289 0.0 
0.780543 0.0108936 0.0 
0.878838 0.0147871 0.0 
0.543226 -0.00281716 0.0 
0.520243 0.00645483 0.0 
0.620748 0.0233841 0.0 
0.433732 -0.0299413 0.0 
0.565228 0.0185396 0.0 
0.803183 0.00340882 0.0 
0.672316 -0.0113226 0.0 
0.539578 -0.0073255 0.0 
0.812814 0.00370063 0.0 
0.818766 0.00925036 0.0 
0.539736 0.00589797 0.0 
0.660523 -0.000940114 0.0 
0.511862 -0.0216137 0.0 
0.73137 -0.00879592 0.0 
0.607088 -0.00149678 0.0 
0.630304 0.122153 0.0 
0.869737 -0.00415327 0.0 
0.521971 -0.0330103 0.0 
0.469446 -0.0432131 0.0 
0.78335 0.0148882 0.0 
0.638361 -0.00189349 0.0 
0.554455 0.00271405 0.0 
1.12961 -0.00146674 0.0 
0.609608 -0.0246753 0.0 
0.731796 -0.0112605 0.0 
1.10079 0.034464 0.0 
0.439068 -0.0506004 0.0 
0.49128 -0.0307435 0.0 
0.8968 -0.00833718 0.0 
0.897632 0.0142037 0.0 
0.712174 0.00358042 0.0 
0.849422 0.00629652 0.0 
0.788482 0.0111696 0.0 
0.707741 -0.000303908 0.0 
0.670877 0.118198 0.0 
0.802862 -0.00686542 0.0 
0.769492 0.0220552 0.0 
0.758416 -0.00717113 0.0 
0.614322 0.0234939 0.0 
0.544415 0.0010617 0.0 
0.851141 -0.00429036 0.0 
0.672327 -0.00628624 0.0 
0.464797 0.00643508 0.0 
0.56587 -0.0299567 0.0 
0.546229 0.0273399 0.0 
0.675385 0.00116437 0.0 
0.815099 -0.00765607 0.0 
0.740077 0.00857918 0.0 
0.956433 -0.00501257 0.0 
0.714081 0.104678 0.0 
0.590842 -0.0108077 0.0 
0.708023 -0.00460366 0.0 
0.624765 -0.00389511 0.0 
0.740775 -0.0140353 0.0 
0.569788 -0.0113188 0.0 
0.515716 0.0236372 0.0 
0.71616 -0.0112794 0.0 
0.580649 -0.0251747 0.0 
0.471979 -0.0347811 0.0 
0.720124 0.113041 0.0 
0.873457 0.00647287 0.0 
0.51445 0.0164187 0.0 
0.863808 0.0101896 0.0 
0.449733 0.133263 0.0 
0.762754 -0.012692 0.0 
0.593722 0.124993 0.0 
0.600119 -0.0210441 0.0 
0.423548 -0.0468484 0.0 
0.526129 -0.00223806 0.0 
1.01385 0.06037 0.0 
0.454107 0.125947 0.0 
0.647809 -0.00590871 0.0 
0.689322 0.0198035 0.0 
0.730549 0.10989 0.0 
0.542038 0.00462459 0.0 
0.502659 0.00117314 0.0 
0.503638 0.114652 0.0 
0.577797 0.121424 0.0 
0.783436 0.106922 0.0 
0.641674 0.1195 0.0 
0.878959 0.0108774 0.0 
0.910294 0.0140687 0.0 
0.538083 -0.00973092 0.0 
0.662719 -0.0165852 0.0 
0.993517 0.0658056 0.0 
0.542295 0.0190498 0.0 
0.561049 -0.0297583 0.0 
0.887084 0.0898152 0.0 
0.57069 0.0176379 0.0 
0.537102 0.0131811 0.0 
0.744798 -0.0127436 0.0 
0.820868 -0.00242172 0.0 
1.04093 0.0601229 0.0 
0.752658 0.00696856 0.0 
0.968888 0.0480105 0.0 
0.56234 -0.0267929 0.0 
0.635568 -0.00382959 0.0 
0.614479 -0.00934108 0.0 
0.615938 -0.00576579 0.0 
0.515486 0.00377534 0.0 
0.545237 0.12644 0.0 
0.463557 -0.0489402 0.0 
0.475306 0.131819 0.0 
0.536433 -0.0332405 0.0 
0.573465 0.0247174 0.0 
0.628535 0.0180676 0.0 
0.825783 0.00715515 0.0 
0.579721 -0.01045 0.0 
0.649029 0.109948 0.0 
0.811741 0.0638195 0.0 
0.718925 -0.00783718 0.0 
0.781283 0.107504 0.0 
0.485306 0.135704 0.0 
0.541707 0.0272789 0.0 
0.864798 0.0937923 0.0 
0.872979 0.0146869 0.0 
0.649805 -0.0187174 0.0 
0.784765 0.0166286 0.0 
0.798961 0.0101343 0.0 
1.07492 0.0512064 0.0 
0.844227 0.0153458 0.0 
0.583028 -0.02402 0.0 
0.530549 -0.0356286 0.0 
0.870111 0.0739547 0.0 
0.708647 0.0136471 0.0 
0.530811 0.115422 0.0 
0.516382 0.00915848 0.0 
0.788714 0.0779157 0.0 
0.834955 -0.00570455 0.0 
0.650665 0.118559 0.0 
0.401216 -0.0467655 0.0 
0.692336 0.114699 0.0 
0.483524 -0.026953 0.0 
0.548547 0.129243 0.0 
0.817247 0.00601387 0.0 
0.892208 0.00986125 0.0 
0.449535 -0.0515558 0.0 
0.779571 0.00290186 0.0 
0.407071 -0.0417265 0.0 
0.84434 0.0934559 0.0 
0.63446 0.0223253 0.0 
0.495686 0.106218 0.0 
0.562796 0.00552288 0.0 
0.997066 0.0561151 0.0 
1.03977 0.064253 0.0 
0.453383 0.139449 0.0 
0.573288 -0.00274391 0.0 
0.513487 0.00623216 0.0 
0.514895 0.0285696 0.0 
0.886072 0.0847924 0.0 
0.615729 -0.00374278 0.0 
0.377608 -0.0409117 0.0 
1.02568 0.0660627 0.0 
0.689808 -0.00332489 0.0 
0.940551 -0.00529336 0.0 
1.05241 0.0618253 0.0 
0.801474 -0.0104026 0.0 
0.863354 0.0147046 0.0 
0.723776 -0.00318922 0.0 
0.894997 0.0106288 0.0 
0.594333 -0.00757213 0.0 
0.824897 0.00413809 0.0 
0.624956 0.00124762 0.0 
0.534327 -0.0314898 0.0 
0.426031 0.141905 0.0 
0.647297 -0.000289037 0.0 
0.827621 0.0580992 0.0 
0.508475 0.0266955 0.0 
0.861516 0.0136817 0.0 
0.638067 0.0212317 0.0 
0.522306 0.0247009 0.0 
0.500114 -0.0374233 0.0 
0.850618 0.00960996 0.0 
0.550304 -0.0143996 0.0 
0.793981 -0.0119009 0.0 
0.769224 0.0722482 0.0 
0.52025 -0.00417396 0.0 
0.761549 0.0888659 0.0 
0.464233 -0.0487864 0.0 
0.549671 0.0104917 0.0 
0.958825 0.0455991 0.0 
0.568626 -0.0129073 0.0 
0.441735 -0.0252809 0.0 
0.541046 -0.0110016 0.0 
0.604499 -0.00988435 0.0 
1.01276 0.0626491 0.0 
0.623996 0.113428 0.0 
0.900139 0.0125537 0.0 
0.564797 0.117883 0.0 
0.624333 -0.00149964 0.0 
0.723317 0.0987822 0.0 
0.880902 0.0138478 0.0 
0.512723 -0.0368136 0.0 
0.889116 0.0141787 0.0 
0.561455 -0.0035721 0.0 
0.851057 0.0593029 0.0 
0.660849 -0.0197206 0.0 
0.849643 0.014828 0.0 
0.716971 0.0210121 0.0 
0.543445 -0.0241522 0.0 
0.975003 0.0553385 0.0 
0.815085 0.0113907 0.0 
0.909882 0.0699168 0.0 
0.988007 0.061379 0.0 
0.832287 0.00169463 0.0 
0.536587 0.0225612 0.0 
0.809285 -0.000359286 0.0 
0.660286 -0.0066029 0.0 
0.613864 -0.0234949 0.0 
0.56463 0.0262081 0.0 
0.446739 -0.0041048 0.0 
0.551453 -0.0133649 0.0 
0.559007 0.0259955 0.0 
0.813933 0.103922 0.0 
0.759956 0.0137896 0.0 
0.604447 0.0186954 0.0 
0.836912 0.013735 0.0 
0.75952 0.0117519 0.0 
0.637717 -0.0168382 0.0 
0.517361 -0.0365409 0.0 
0.659907 0.00839851 0.0 
1.06756 0.0549202 0.0 
0.751965 -0.00312309 0.0 
0.714256 0.00017961 0.0 
0.523824 0.0232884 0.0 
0.656558 -0.0183713 0.0 
0.492689 -0.042393 0.0 
0.87007 0.00256442 0.0 
0.704759 0.0950616 0.0 
0.536483 -0.0314865 0.0 
0.884223 0.0116256 0.0 
0.564674 -0.0130994 0.0 
0.824116 0.0108402 0.0 
0.36146 -0.0367371 0.0 
0.660493 0.00594851 0.0 
0.811409 0.0133864 0.0 
0.972835 0.0606417 0.0 
0.506728 0.0203857 0.0 
0.841676 0.00972142 0.0 
0.55809 0.0219792 0.0 
0.73939 -0.000846321 0.0 
0.450916 0.0759785 0.0 
0.597462 -0.0102398 0.0 
0.759944 -0.00362172 0.0 
0.692633 -0.0160886 0.0 
0.768939 0.00816152 0.0 
0.515634 -0.016508 0.0 
0.877903 -0.00677647 0.0 
0.51332 0.0201775 0.0 
0.67314 0.114478 0.0 
0.886019 0.0133318 0.0 
0.55233 -0.031972 0.0 
0.536217 0.0278742 0.0 
0.616138 0.123032 0.0 
0.821842 0.0704797 0.0 
0.596149 0.0211308 0.0 
0.45958 0.104172 0.0 
0.827009 0.00251275 0.0 
0.819783 0.0153067 0.0 
0.601876 0.0243177 0.0 
0.739557 -0.0148631 0.0 
0.962354 0.0684184 0.0 
0.52564 0.0148569 0.0 
0.580254 -0.00933224 0.0 
0.455098 0.00132582 0.0 
0.522285 -0.00730446 0.0 
0.796169 0.0681172 0.0 
0.560997 0.00828444 0.0 
0.743609 0.0225963 0.0 
0.563042 0.02224 0.0 
0.587507 0.00358283 0.0 
1.01407 0.070536 0.0 
0.592551 -0.0266733 0.0 
0.90737 0.0866368 0.0 
0.847942 0.0033124 0.0 
0.555478 0.0111091 0.0 
0.510138 -0.0394045 0.0 
0.561135 -0.0138362 0.0 
0.823602 0.00864532 0.0 
0.545691 -0.0278311 0.0 
0.791032 -0.00378624 0.0 
0.848281 0.0115932 0.0 
0.608131 -0.00644137 0.0 
0.464174 0.0892645 0.0 
0.392583 0.145276 0.0 
0.66746 -7.18504e-05 0.0 
0.895272 0.00792632 0.0 
0.648705 0.0110302 0.0 
0.483609 -0.0441169 0.0 
0.646402 -0.0187662 0.0 
0.488551 -0.0421262 0.0 
0.786361 0.0132203 0.0 
0.906356 0.0140881 0.0 
0.462879 -0.048349 0.0 
0.557193 -0.00727328 0.0 
0.459313 0.136715 0.0 
0.515385 0.0285458 0.0 
0.735085 0.0932404 0.0 
0.536598 -0.023395 0.0 
0.525922 0.123603 0.0 
0.509686 0.133838 0.0 
0.566168 0.0214551 0.0 
0.434143 -0.042847 0.0 
0.510445 0.00995678 0.0 
0.839412 0.082678 0.0 
0.549361 -0.0154533 0.0 
0.508217 0.0272711 0.0 
0.866283 0.0040333 0.0 
0.711933 0.00574254 0.0 
0.764212 -0.0134012 0.0 
0.682627 0.0200323 0.0 
0.631399 0.0212492 0.0 
0.542374 -0.032499 0.0 
0.678042 -0.0122257 0.0 
0.526068 0.0193784 0.0 
0.829558 0.0145568 0.0 
0.88314 0.00872375 0.0 
0.625654 0.0126665 0.0 
0.585221 0.0148336 0.0 
0.617076 0.116967 0.0 
0.742871 0.00857775 0.0 
0.517544 -0.0370128 0.0 
0.527359 -0.0359515 0.0 
0.508992 0.00669176 0.0 
0.91363 0.090252 0.0 
0.628453 0.0152962 0.0 
0.512257 0.0142024 0.0 
0.501363 -0.0393852 0.0 
0.607883 0.110739 0.0 
0.50576 0.0291371 0.0 
0.827294 -0.00758511 0.0 
0.518153 -0.03798 0.0 
0.618407 0.0226399 0.0 
0.772251 -0.00797346 0.0 
0.954513 0.0774331 0.0 
0.905103 0.00355131 0.0 
0.525549 -0.0332513 0.0 
0.703094 0.00734653 0.0 
0.787756 0.0131472 0.0 
0.4865 -0.0440814 0.0 
0.84793 0.00294628 0.0 
0.499785 -0.0348907 0.0 
0.620135 0.00889331 0.0 
0.516394 -0.0264958 0.0 
0.584102 0.020729 0.0 
0.650823 0.0154207 0.0 
0.916977 0.0133106 0.0 
0.638985 0.0225557 0.0 
0.376496 -0.0334813 0.0 
0.657939 0.0203013 0.0 
0.648645 0.0217271 0.0 
0.603357 0.0135108 0.0 
0.501139 0.0202381 0.0 
0.670871 -0.00556204 0.0 
0.980395 0.0502664 0.0 
0.546816 0.00199706 0.0 
0.67353 0.00805449 0.0 
0.880614 0.012422 0.0 
0.439598 -0.0472329 0.0 
0.635294 -0.013353 0.0 
0.526703 -1.21453e-05 0.0 
0.843621 0.0761481 0.0 
0.508342 0.0233837 0.0 
0.802278 -0.008438 0.0 
0.701516 -0.0152566 0.0 
1.05605 0.0568605 0.0 
1.09436 0.0392313 0.0 
0.898058 0.01275 0.0 
0.777152 -0.0134605 0.0 
1.07646 0.0504662 0.0 
0.817589 0.0158678 0.0 
0.644851 -0.00402894 0.0 
0.532657 0.0191592 0.0 
0.58016 -0.00977028 0.0 
0.532916 0.0134697 0.0 
0.79315 0.085359 0.0 
0.518247 0.0267718 0.0 
0.521057 -0.0307144 0.0 
0.577595 0.0194184 0.0 
0.481353 -0.04479 0.0 
0.620076 -0.0229281 0.0 
0.489959 0.124843 0.0 
0.635164 0.00751539 0.0 
0.516446 -0.0105357 0.0 
0.57396 0.0102506 0.0 
0.694973 0.0106705 0.0 
0.535846 -0.0116306 0.0 
0.455699 -0.0500281 0.0 
0.755842 0.104309 0.0 
0.547038 -0.0299048 0.0 
0.612541 0.119474 0.0 
0.79054 0.0993342 0.0 
0.409431 -0.0325696 0.0 
0.441469 -0.0392118 0.0 
0.628102 0.018134 0.0 
0.868958 0.0119728 0.0 
0.512396 0.0195026 0.0 
0.613457 0.00728182 0.0 
0.81056 -0.00431314 0.0 
0.544474 0.0186953 0.0 
0.591373 0.0230121 0.0 
0.491032 -0.0177874 0.0 
0.726149 -0.0154081 0.0 
0.678979 -0.00336121 0.0 
0.610097 -0.0235775 0.0 
0.991677 0.0731742 0.0 
0.59646 0.0167353 0.0 
1.05595 0.0587118 0.0 
0.910306 0.0114237 0.0 
0.963832 0.0737967 0.0 
0.683704 -0.0019214 0.0 
0.864555 0.0811014 0.0 
0.831433 0.0900289 0.0 
0.675731 -0.0104263 0.0 
0.566336 -0.0126842 0.0 
0.813985 0.103735 0.0 
0.763493 0.00492218 0.0 
0.531869 0.130851 0.0 
0.808382 0.101454 0.0 
0.510671 0.00250386 0.0 
0.850442 -0.00728688 0.0 
0.99043 0.0705623 0.0 
0.859908 0.0873511 0.0 
0.887632 0.0930875 0.0 
0.502898 0.014623 0.0 
0.759488 0.108341 0.0 
1.02364 0.0596611 0.0 
0.811286 0.0149866 0.0 
0.894221 -0.00151802 0.0 
0.550653 -0.00429132 0.0 
0.589857 -0.00947164 0.0 
0.530409 0.00633247 0.0 
0.678543 0.0152972 0.0 
0.644012 -0.00260327 0.0 
0.528243 0.0268599 0.0 
0.585281 -0.0275234 0.0 
0.809596 0.013519 0.0 
0.639853 -0.00778909 0.0 
0.713617 0.108557 0.0 
0.683347 0.10734 0.0 
0.99312 0.0589097 0.0 
0.42389 -0.0514786 0.0 
0.837209 0.0646062 0.0 
0.592525 -0.0244201 0.0 
0.819256 -0.000474228 0.0 
0.682648 -0.00163582 0.0 
0.980021 0.0721565 0.0 
0.654924 0.0192015 0.0 
0.46045 -0.0424238 0.0 
0.464649 -0.0459069 0.0 
0.500588 0.0277358 0.0 
0.736144 -0.013985 0.0 
0.669334 0.118166 0.0 
0.72609 0.111559 0.0 
0.525156 0.0039353 0.0 
1.03232 0.0625817 0.0 
0.804208 0.0921773 0.0 
0.796252 0.00565673 0.0 
0.840324 0.0988364 0.0 
0.540136 0.0239996 0.0 
0.747555 0.110528 0.0 
0.430004 -0.0364099 0.0 
0.613084 -0.0220033 0.0 
0.510084 0.0242518 0.0 
0.848378 -0.0097959 0.0 
0.64154 -0.0210827 0.0 
0.79627 0.00747248 0.0 
0.928483 0.0763202 0.0 
0.701668 -0.00211214 0.0 
0.69828 -0.00654948 0.0 
0.654002 0.105389 0.0 
0.59585 -0.0104402 0.0 
0.774156 0.0955822 0.0 
0.419637 0.139177 0.0 
1.03393 0.0666048 0.0 
0.572206 0.0144633 0.0 
0.526774 0.0275727 0.0 
0.899828 0.0751561 0.0 
0.581053 -0.0277982 0.0 
0.751472 0.110507 0.0 
0.398088 -0.0375352 0.0 
0.965571 -0.000439889 0.0 
0.746063 0.00173564 0.0 
0.655444 0.0175816 0.0 
0.820197 0.0961831 0.0 
1.01764 0.0652906 0.0 
1.12082 0.009545 0.0 
0.668071 -0.00165955 0.0 
0.77853 0.104503 0.0 
0.938063 -0.000614878 0.0 
0.618134 -0.0208219 0.0 
0.815406 0.0777986 0.0 
0.720582 -0.00362831 0.0 
0.785622 0.0136292 0.0 
0.96167 -0.0088154 0.0 
0.937035 -0.000463735 0.0 
0.686552 0.014148 0.0 
0.843539 -0.0119662 0.0 
0.984115 -0.00902634 0.0 
0.872463 -0.0672092 0.0 
0.581656 0.0120021 0.0 
0.98972 -0.0130957 0.0 
0.582906 0.0122258 0.0 
0.970113 0.00161332 0.0 
0.917286 -0.0451523 0.0 
0.957168 0.0168514 0.0 
0.858019 0.0143932 0.0 
0.558545 0.109562 0.0 
0.995129 -0.0264458 0.0 
0.972911 -0.00536096 0.0 
0.953609 0.0252295 0.0 
0.955273 -0.00046716 0.0 
0.993009 -0.0201924 0.0 
0.977642 0.000626168 0.0 
0.774323 0.00286186 0.0 
0.643201 0.0133237 0.0 
0.606657 0.0039957 0.0 
0.839251 -0.000693172 0.0 
0.635348 0.0198957 0.0 
0.96259 0.00358614 0.0 
0.978244 0.00113378 0.0 
0.984931 -0.0198548 0.0 
0.872279 0.00886394 0.0 
0.92026 0.0295923 0.0 
1.01953 -0.0331411 0.0 
0.88616 0.0155418 0.0 
0.65836 -0.0053455 0.0 
0.976895 -0.0119449 0.0 
0.761288 0.0154927 0.0 
0.948546 0.017423 0.0 
0.91653 0.000395309 0.0 
1.00647 -0.00250848 0.0 
0.945484 -0.000204267 0.0 
0.968146 0.00933031 0.0 
0.979717 -0.000917138 0.0 
0.810265 -0.0114778 0.0 
0.613268 0.0206441 0.0 
0.89699 -0.000277462 0.0 
0.999977 -0.0155423 0.0 
0.993439 -0.00515959 0.0 
0.769323 -0.00438728 0.0 
0.929378 9.00137e-05 0.0 
0.938042 0.0335702 0.0 
0.959891 0.0103284 0.0 
0.85372 -0.00141003 0.0 
0.901119 -0.00181204 0.0 
0.642654 -0.00849823 0.0 
0.554109 -0.00875149 0.0 
0.889559 0.0365463 0.0 
0.611085 -0.0162906 0.0 
0.898132 0.0272661 0.0 
0.946198 0.00793308 0.0 
0.952943 0.0116388 0.0 
0.932197 0.024851 0.0 
0.972365 -0.000909113 0.0 
0.463585 0.0159657 0.0 
1.01056 0.000261328 0.0 
0.974959 -0.000716394 0.0 
1.01178 -0.000423191 0.0 
1.00341 -0.0190558 0.0 
0.908587 0.0291792 0.0 
0.874115 0.0167323 0.0 
1.07115 0.0521521 0.0 
0.6566 0.0136487 0.0 
0.939031 0.0165623 0.0 
0.548583 0.015338 0.0 
0.957507 -0.000216146 0.0 
0.954586 0.011294 0.0 
1.02348 -0.0032595 0.0 
0.951103 -5.97722e-05 0.0 
0.915855 -0.000345468 0.0 
0.864573 0.0144956 0.0 
0.635083 0.00234035 0.0 
0.862975 0.0237816 0.0 
0.974386 0.0056935 0.0 
0.955664 -0.000697997 0.0 
0.989297 -0.0177306 0.0 
1.0055 -0.00280407 0.0 
0.915146 0.0211823 0.0 
0.982726 -0.0028838 0.0 
0.682929 -0.00603889 0.0 
1.00161 -0.0238603 0.0 
0.916267 0.000565469 0.0 
0.987835 -0.000859473 0.0 
0.635381 -0.00752975 0.0 
0.964635 0.0151043 0.0 
0.955948 0.0115368 0.0 
0.870813 0.0291058 0.0 
0.879609 0.0241559 0.0 
0.539312 -0.0067651 0.0 
0.977575 0.00267973 0.0 
0.948723 0.0126481 0.0 
1.01594 -0.0397177 0.0 
0.94658 0.0133861 0.0 
0.549841 0.0224684 0.0 
0.934418 -0.0623667 0.0 
0.938999 0.01038 0.0 
0.963997 -0.0110366 0.0 
0.698378 -0.00160272 0.0 
0.540709 0.0119328 0.0 
0.557616 -0.00173416 0.0 
0.929493 0.00662452 0.0 
0.980196 0.00655756 0.0 
0.918656 0.00318641 0.0 
0.634184 -0.00727348 0.0 
0.846839 0.01303 0.0 
0.930311 0.00222872 0.0 
0.960641 -0.0113368 0.0 
0.904183 0.0014241 0.0 
0.933613 0.00492438 0.0 
0.80565 0.00561808 0.0 
0.607796 -0.017312 0.0 
0.535986 0.0264839 0.0 
0.956355 -0.0121997 0.0 
0.91848 -0.00221173 0.0 
0.663364 0.0210557 0.0 
0.556929 0.0194211 0.0 
0.707306 -0.00570293 0.0 
0.887964 -0.00213706 0.0 
0.964317 0.00770217 0.0 
0.931242 -0.000507159 0.0 
1.04116 -0.0192384 0.0 
1.01582 0.0554801 0.0 
0.899585 -0.00291981 0.0 
0.967169 0.00254382 0.0 
0.974197 -0.00799617 0.0 
0.867911 0.0138287 0.0 
0.918974 -0.00306079 0.0 
0.964092 0.0114632 0.0 
0.525418 -0.00918492 0.0 
0.693467 -0.0172695 0.0 
0.93201 -0.00178159 0.0 
0.972262 -0.00290878 0.0 
0.944739 5.36595e-07 0.0 
0.978786 -0.0112749 0.0 
1.00719 -0.00353496 0.0 
0.955537 -0.000454209 0.0 
0.987033 -0.00510256 0.0 
0.912712 -0.00100519 0.0 
0.972712 -0.0103644 0.0 
0.991746 -0.00149983 0.0 
1.02594 -0.00411505 0.0 
1.13403 -0.00567825 0.0 
0.987549 0.0047796 0.0 
0.969059 -0.0121792 0.0 
0.58251 -0.0271714 0.0 
0.964868 -0.00069024 0.0 
0.937226 -1.8371e-05 0.0 
1.01741 -0.0165357 0.0 