<VTKFile type="UnstructuredGrid" version="0.1" byte_order="LittleEndian">
  <UnstructuredGrid>
    <Piece NumberOfPoints="16471" NumberOfCells="32385">
      <Points>
        <DataArray type = "Float64" NumberOfComponents="3" format="ascii">
1.18533 1.02364 0.0 
1.14001 1.01615 0.0 
1.13572 0.992585 0.0 
1.13096 0.99032 0.0 
1.06934 1.02123 0.0 
1.13349 0.992682 0.0 
1.07164 1.01859 0.0 
1.07935 1.01699 0.0 
1.18048 1.02231 0.0 
1.17817 1.02223 0.0 
1.18045 1.01568 0.0 
1.17176 1.02004 0.0 
1.16986 1.02042 0.0 
1.17678 1.01488 0.0 
1.16857 1.01945 0.0 
1.13964 0.992096 0.0 
1.17614 1.02049 0.0 
1.16685 1.02039 0.0 
1.17444 1.01529 0.0 
1.11011 1.03168 0.0 
1.17077 1.01615 0.0 
1.1592 1.01898 0.0 
1.1317 0.99078 0.0 
1.17053 1.01757 0.0 
1.18555 1.01434 0.0 
1.16392 1.01931 0.0 
1.14101 0.991479 0.0 
1.16633 1.01962 0.0 
1.16888 1.02002 0.0 
1.13471 0.99228 0.0 
1.16414 1.01997 0.0 
1.16885 1.01889 0.0 
1.16154 1.01883 0.0 
1.16069 1.01999 0.0 
1.15894 1.01837 0.0 
1.1014 1.01835 0.0 
1.16282 1.02056 0.0 
1.1721 1.01677 0.0 
1.16808 1.0214 0.0 
1.17506 1.02194 0.0 
1.17055 1.0184 0.0 
1.16216 1.0182 0.0 
1.15971 1.01795 0.0 
1.16546 1.01762 0.0 
1.16903 1.01629 0.0 
1.17721 1.02156 0.0 
1.17998 1.02295 0.0 
1.16346 1.01761 0.0 
1.16883 1.02087 0.0 
1.18311 1.01509 0.0 
1.18522 1.02314 0.0 
1.18545 1.02276 0.0 
1.16762 1.01757 0.0 
1.17933 1.02179 0.0 
1.17633 1.02232 0.0 
1.16537 1.01817 0.0 
1.1752 1.0214 0.0 
1.17081 1.01907 0.0 
1.1728 1.021 0.0 
1.17101 1.02135 0.0 
1.17351 1.02044 0.0 
1.17298 1.02214 0.0 
1.15664 1.01878 0.0 
1.17642 1.02092 0.0 
1.13314 0.99147 0.0 
1.16718 1.01855 0.0 
1.16574 1.02092 0.0 
1.1796 1.0213 0.0 
1.17189 1.02173 0.0 
1.17336 1.0215 0.0 
1.17705 1.0157 0.0 
1.16743 1.01701 0.0 
1.18292 1.02257 0.0 
1.1663 1.01895 0.0 
1.16291 1.02119 0.0 
1.12175 1.03435 0.0 
1.1692 1.01795 0.0 
1.17942 1.01517 0.0 
1.16118 1.01943 0.0 
1.16386 1.01869 0.0 
1.17362 1.01596 0.0 
1.16691 1.02116 0.0 
1.16034 1.01748 0.0 
1.15732 1.01774 0.0 
1.1714 1.02075 0.0 
1.16952 1.01688 0.0 
1.17458 1.02095 0.0 
1.16812 1.01825 0.0 
1.18302 1.02318 0.0 
1.17186 1.02042 0.0 
1.16541 1.01713 0.0 
1.16487 1.02046 0.0 
1.06958 1.01763 0.0 
1.18815 1.02343 0.0 
1.12871 0.985717 0.0 
1.1621 1.01704 0.0 
1.16124 1.00086 0.0 
1.10422 1.01657 0.0 
1.06894 1.0199 0.0 
1.1076 1.01203 0.0 
1.10455 1.01216 0.0 
1.10093 1.01115 0.0 
1.17403 1.02487 0.0 
1.11441 1.00799 0.0 
1.1686 1.00945 0.0 
1.10041 1.01795 0.0 
1.15572 1.00924 0.0 
1.15256 1.00675 0.0 
1.12121 1.00907 0.0 
1.08989 1.01726 0.0 
1.18394 1.01351 0.0 
1.15887 1.01302 0.0 
1.15067 1.00471 0.0 
1.16803 1.01099 0.0 
1.09634 1.01383 0.0 
1.11646 1.00349 0.0 
1.07168 1.02006 0.0 
1.15605 1.00845 0.0 
1.13838 1.00994 0.0 
1.18213 1.01258 0.0 
1.10872 1.01117 0.0 
1.15568 1.00391 0.0 
1.11154 1.00648 0.0 
1.12882 1.01138 0.0 
1.17689 1.00908 0.0 
1.12561 1.01221 0.0 
1.18801 1.01269 0.0 
1.15792 1.01139 0.0 
1.07056 1.01743 0.0 
1.14625 1.00328 0.0 
1.15987 1.01073 0.0 
1.18119 1.01175 0.0 
1.10444 1.01069 0.0 
1.06887 1.01922 0.0 
1.12557 1.01277 0.0 
1.14259 1.00543 0.0 
1.07115 1.02295 0.0 
1.15059 1.00594 0.0 
1.06797 1.02135 0.0 
1.11017 1.01252 0.0 
1.0883 1.01689 0.0 
1.11495 1.00194 0.0 
1.10368 1.00992 0.0 
1.09471 1.0165 0.0 
1.07305 1.01775 0.0 
1.1535 1.00746 0.0 
1.10863 1.01371 0.0 
1.12479 1.00985 0.0 
1.07333 1.02028 0.0 
1.06836 1.02066 0.0 
1.1243 1.01203 0.0 
1.13314 1.0089 0.0 
1.16348 1.0114 0.0 
1.18682 1.01031 0.0 
1.07305 1.01902 0.0 
1.15173 0.991387 0.0 
1.15857 1.01363 0.0 
1.15491 1.00616 0.0 
1.14331 1.01225 0.0 
1.08078 1.01522 0.0 
1.07828 1.01536 0.0 
1.12948 1.01108 0.0 
1.13375 1.0124 0.0 
1.08017 1.01472 0.0 
1.07051 1.01993 0.0 
1.12421 1.01312 0.0 
1.07366 1.02364 0.0 
1.11203 1.01565 0.0 
1.07011 1.02246 0.0 
1.0745 1.02713 0.0 
1.07202 1.0171 0.0 
1.14571 1.00217 0.0 
1.12707 1.0149 0.0 
1.07256 1.02225 0.0 
1.10765 1.0036 0.0 
1.10297 1.01416 0.0 
1.13006 1.01067 0.0 
1.13429 1.01497 0.0 
1.16968 1.01315 0.0 
1.07105 1.01732 0.0 
1.17609 1.00603 0.0 
1.11329 1.00254 0.0 
1.10706 1.00062 0.0 
1.09537 1.01688 0.0 
1.10528 1.00338 0.0 
1.13233 1.01067 0.0 
1.08158 1.01421 0.0 
1.17042 1.01479 0.0 
1.08061 1.01457 0.0 
1.12952 1.00879 0.0 
1.15131 1.00214 0.0 
1.12925 1.01336 0.0 
1.09276 1.01703 0.0 
1.07037 1.02182 0.0 
1.08423 1.01683 0.0 
1.08532 1.01719 0.0 
1.12044 1.01656 0.0 
1.07361 1.0184 0.0 
1.1422 1.01954 0.0 
1.08228 1.01395 0.0 
1.09468 1.01332 0.0 
1.11156 1.00233 0.0 
1.08145 1.01492 0.0 
1.11282 1.01743 0.0 
1.11603 1.01068 0.0 
1.12962 1.01172 0.0 
1.16459 1.0106 0.0 
1.11972 1.00827 0.0 
1.13668 1.01599 0.0 
1.12551 1.014 0.0 
1.12065 1.01279 0.0 
1.16621 1.00088 0.0 
1.18475 1.0058 0.0 
1.14948 1.01014 0.0 
1.11622 1.00702 0.0 
1.16119 1.00987 0.0 
1.081 1.01572 0.0 
1.07226 1.02536 0.0 
1.0718 1.01797 0.0 
1.11217 1.01444 0.0 
1.08111 1.01439 0.0 
1.08218 1.01465 0.0 
1.12899 1.00946 0.0 
1.1054 1.01434 0.0 
1.16073 1.01146 0.0 
1.06737 1.02475 0.0 
1.08194 1.01614 0.0 
1.15486 1.01107 0.0 
1.11392 1.00679 0.0 
1.1667 1.01056 0.0 
1.07014 1.02064 0.0 
1.13144 1.01312 0.0 
1.08085 1.02576 0.0 
1.07585 1.0236 0.0 
1.1542 1.00812 0.0 
1.07154 1.01721 0.0 
1.09119 1.01808 0.0 
1.14331 1.00369 0.0 
1.14202 1.00758 0.0 
1.14363 1.00474 0.0 
1.10518 1.00466 0.0 
1.13064 1.00942 0.0 
1.17501 1.0085 0.0 
1.14095 1.00826 0.0 
1.14885 1.01332 0.0 
1.06848 1.02185 0.0 
1.13755 1.00661 0.0 
1.11644 1.01463 0.0 
1.07031 1.02585 0.0 
1.10436 1.01603 0.0 
1.07145 1.02237 0.0 
1.16162 1.0025 0.0 
1.17038 1.0045 0.0 
1.14061 1.01436 0.0 
1.16305 1.00625 0.0 
1.07436 1.01833 0.0 
1.1518 1.01432 0.0 
1.07077 1.02449 0.0 
1.12893 1.01714 0.0 
1.15128 1.0104 0.0 
1.14366 1.0072 0.0 
1.07122 1.01928 0.0 
1.08526 1.02759 0.0 
1.06947 1.02502 0.0 
1.14699 1.01483 0.0 
1.13112 1.01071 0.0 
1.1747 1.00292 0.0 
1.17271 1.00863 0.0 
1.1492 1.01092 0.0 
1.15099 1.0126 0.0 
1.15898 1.00457 0.0 
1.16046 1.01033 0.0 
1.14987 1.01497 0.0 
1.073 1.01842 0.0 
1.0706 1.02117 0.0 
1.12767 1.01038 0.0 
1.08116 1.01779 0.0 
1.15238 1.0036 0.0 
1.16803 1.00662 0.0 
1.14833 1.03314 0.0 
1.06699 1.02289 0.0 
1.14242 1.0141 0.0 
1.07299 1.01687 0.0 
1.07222 1.01771 0.0 
1.16718 1.01647 0.0 
1.09976 1.02894 0.0 
1.12929 1.01265 0.0 
1.13709 1.01323 0.0 
1.11208 1.01314 0.0 
1.14331 1.01034 0.0 
1.07517 1.01629 0.0 
1.07354 1.02208 0.0 
1.14955 1.00169 0.0 
1.13059 1.01257 0.0 
1.11689 1.01734 0.0 
1.12782 1.00919 0.0 
1.10883 1.0055 0.0 
1.17832 1.00738 0.0 
1.0691 1.01846 0.0 
1.11588 1.00509 0.0 
1.15041 1.00374 0.0 
1.14961 1.00266 0.0 
1.13886 1.01561 0.0 
1.15714 1.01051 0.0 
1.0712 1.01792 0.0 
1.15788 1.00945 0.0 
1.11382 1.01196 0.0 
1.11745 0.994855 0.0 
1.1798 1.01452 0.0 
1.13142 1.00851 0.0 
1.15897 1.01097 0.0 
1.08176 1.02653 0.0 
1.0695 1.01888 0.0 
1.07003 1.01754 0.0 
1.14601 1.006 0.0 
1.12188 1.01236 0.0 
1.16215 1.01061 0.0 
1.18316 1.00656 0.0 
1.13966 1.01893 0.0 
1.07348 1.01674 0.0 
1.1651 1.0016 0.0 
1.15415 1.00941 0.0 
1.13476 1.01309 0.0 
1.11185 1.02626 0.0 
1.14206 1.00675 0.0 
1.15243 1.0172 0.0 
1.17233 1.00315 0.0 
1.15383 1.01274 0.0 
1.17627 1.00379 0.0 
1.0709 1.02048 0.0 
1.14996 1.00535 0.0 
1.1645 1.00051 0.0 
1.18058 1.0049 0.0 
1.09799 1.01781 0.0 
1.13958 1.01297 0.0 
1.14044 1.01153 0.0 
1.14349 1.00636 0.0 
1.07361 1.02474 0.0 
1.1139 1.00514 0.0 
1.15299 1.01098 0.0 
1.1508 1.00911 0.0 
1.10689 1.01795 0.0 
1.13825 1.0091 0.0 
1.12249 1.015 0.0 
1.15066 1.00989 0.0 
1.14903 1.00943 0.0 
1.17241 1.00438 0.0 
1.14618 1.00677 0.0 
1.15386 1.00422 0.0 
1.15326 1.0059 0.0 
1.15267 1.03234 0.0 
1.14386 1.01298 0.0 
1.1711 1.00656 0.0 
1.14187 1.01284 0.0 
1.16501 1.00263 0.0 
1.1132 1.01793 0.0 
1.16928 1.00585 0.0 
1.08392 1.01815 0.0 
1.07212 1.0192 0.0 
1.17047 1.00824 0.0 
1.07151 1.02375 0.0 
1.1051 1.02577 0.0 
1.06944 1.02036 0.0 
1.09615 1.01096 0.0 
1.07296 1.02305 0.0 
1.14997 1.00737 0.0 
1.11333 1.00038 0.0 
1.155 1.00295 0.0 
1.15206 1.00446 0.0 
1.11552 1.01274 0.0 
1.14216 1.01083 0.0 
1.07048 1.01923 0.0 
1.16577 1.0113 0.0 
1.15133 1.00299 0.0 
1.07461 1.02277 0.0 
1.16334 1.0099 0.0 
1.13254 1.01232 0.0 
1.13357 1.00964 0.0 
1.14479 1.01445 0.0 
1.06841 1.0243 0.0 
1.13251 1.01437 0.0 
1.11766 1.01571 0.0 
1.06833 1.01978 0.0 
1.07266 1.02072 0.0 
1.11698 0.997754 0.0 
1.17054 1.00168 0.0 
1.10208 1.00968 0.0 
1.06727 1.02216 0.0 
1.11961 0.993852 0.0 
1.11877 1.0145 0.0 
1.07272 1.01983 0.0 
1.07239 1.01842 0.0 
1.1476 1.00856 0.0 
1.08888 1.02862 0.0 
1.11929 0.991697 0.0 
1.10185 1.01655 0.0 
1.15191 1.00544 0.0 
1.11752 0.992493 0.0 
1.11823 1.01793 0.0 
1.09889 1.00882 0.0 
1.13335 1.00788 0.0 
1.1586 1.00795 0.0 
1.10923 1.00394 0.0 
1.14975 1.01633 0.0 
1.17551 1.00769 0.0 
1.14308 1.00973 0.0 
1.16757 1.00508 0.0 
1.15565 1.0068 0.0 
1.11631 1.002 0.0 
1.12077 0.990058 0.0 
1.15524 1.00795 0.0 
1.17185 1.00997 0.0 
1.07791 1.02503 0.0 
1.07162 1.02095 0.0 
1.07355 1.01961 0.0 
1.14741 1.01048 0.0 
1.117 1.00817 0.0 
1.15492 1.00726 0.0 
1.14754 1.00625 0.0 
1.13126 1.01188 0.0 
1.16338 1.00288 0.0 
1.14436 1.00569 0.0 
1.15398 1.00348 0.0 
1.17074 1.00912 0.0 
1.15874 1.01197 0.0 
1.13399 1.0134 0.0 
1.12925 1.01006 0.0 
1.08656 1.01849 0.0 
1.1242 1.01104 0.0 
1.07251 1.01698 0.0 
1.09179 1.00953 0.0 
1.17378 1.00388 0.0 
1.11634 0.99394 0.0 
1.17901 1.0057 0.0 
1.1328 1.01296 0.0 
1.11373 1.01376 0.0 
1.11944 1.01326 0.0 
1.07849 1.01594 0.0 
1.15976 1.00267 0.0 
1.17613 1.00519 0.0 
1.149 1.00809 0.0 
1.08585 1.01807 0.0 
1.17426 1.00939 0.0 
1.1418 1.01357 0.0 
1.13669 1.00768 0.0 
1.12251 0.988734 0.0 
1.18433 1.00982 0.0 
1.15901 1.00623 0.0 
1.14774 1.00397 0.0 
1.14472 1.00968 0.0 
1.12702 1.01292 0.0 
1.17407 1.00562 0.0 
1.09784 1.01433 0.0 
1.13646 1.01128 0.0 
1.14761 1.00277 0.0 
1.07265 1.02151 0.0 
1.14699 1.01392 0.0 
1.12514 1.01465 0.0 
1.07011 1.01879 0.0 
1.07089 1.01867 0.0 
1.10984 1.01032 0.0 
1.09572 1.00777 0.0 
1.1097 1.00244 0.0 
1.18114 1.00611 0.0 
1.10265 1.015 0.0 
1.13087 1.01137 0.0 
1.11502 0.99433 0.0 
1.10606 1.01114 0.0 
1.15293 1.00282 0.0 
[...]
<PointData>
  <DataArray type = "Float64" Name="Vitesse" NumberOfComponents="3" format="ascii">
0.196238 -0.0670715 0.0 
0.0896252 -0.0485871 0.0 
-0.0557268 -0.107597 0.0 
-0.0313405 -0.0499075 0.0 
0.0601632 -0.00242893 0.0 
-0.0557135 -0.0801762 0.0 
0.00215228 0.000723162 0.0 
-0.00904133 0.00445268 0.0 
0.127025 -0.0863161 0.0 
0.132569 -0.0928625 0.0 
-0.16511 -0.0987656 0.0 
0.0426295 -0.119247 0.0 
0.0772309 -0.118409 0.0 
-0.185139 -0.122129 0.0 
0.0347809 -0.1267 0.0 
-0.0464202 -0.150264 0.0 
0.0405984 -0.107384 0.0 
0.098554 -0.119254 0.0 
-0.172444 -0.134754 0.0 
0.765199 -0.00933411 0.0 
-0.131322 -0.146707 0.0 
0.0878558 -0.12073 0.0 
-0.0361869 -0.0588852 0.0 
-0.072298 -0.138401 0.0 
-0.17661 -0.058197 0.0 
0.0655651 -0.126396 0.0 
-0.0338158 -0.16179 0.0 
0.0616441 -0.124955 0.0 
0.0630115 -0.12214 0.0 
-0.0523376 -0.0954303 0.0 
0.0974963 -0.121213 0.0 
0.0034331 -0.130999 0.0 
0.0615059 -0.127131 0.0 
0.12524 -0.116662 0.0 
0.0616896 -0.125136 0.0 
0.0436149 0.0187516 0.0 
0.138137 -0.115158 0.0 
-0.115494 -0.139649 0.0 
0.145575 -0.111981 0.0 
0.131566 -0.101422 0.0 
-0.0333558 -0.132503 0.0 
0.0265014 -0.133466 0.0 
0.035986 -0.130933 0.0 
-0.029657 -0.141889 0.0 
-0.114619 -0.14949 0.0 
0.0968691 -0.0988865 0.0 
0.169884 -0.0848499 0.0 
-0.0126326 -0.14031 0.0 
0.11037 -0.115648 0.0 
-0.173358 -0.0792953 0.0 
0.164261 -0.0685082 0.0 
0.139944 -0.0685466 0.0 
-0.0504969 -0.142384 0.0 
0.100486 -0.0917047 0.0 
0.147541 -0.0968445 0.0 
-0.00301463 -0.137172 0.0 
0.0987451 -0.104069 0.0 
-0.00198065 -0.127494 0.0 
0.089909 -0.111064 0.0 
0.122083 -0.110676 0.0 
0.0534522 -0.113317 0.0 
0.156079 -0.103513 0.0 
0.0983464 -0.115535 0.0 
0.063803 -0.104362 0.0 
-0.0437516 -0.0765475 0.0 
-9.55289e-05 -0.13412 0.0 
0.135614 -0.115044 0.0 
0.0700462 -0.0928803 0.0 
0.138947 -0.107009 0.0 
0.115716 -0.107022 0.0 
-0.165554 -0.120209 0.0 
-0.0735807 -0.147007 0.0 
0.134643 -0.0775881 0.0 
0.0275118 -0.130677 0.0 
0.170329 -0.110575 0.0 
0.911718 -0.0204857 0.0 
-0.0450179 -0.137553 0.0 
-0.177725 -0.104981 0.0 
0.0938889 -0.121744 0.0 
0.0354594 -0.131468 0.0 
-0.150854 -0.137132 0.0 
0.140595 -0.113513 0.0 
0.00936404 -0.136693 0.0 
0.047717 -0.125837 0.0 
0.0851263 -0.114586 0.0 
-0.0947842 -0.144957 0.0 
0.0761332 -0.10793 0.0 
-0.0225871 -0.136559 0.0 
0.173016 -0.0753917 0.0 
0.0633972 -0.116491 0.0 
-0.0515333 -0.14604 0.0 
0.117335 -0.117614 0.0 
0 0 0.0 
0.177991 -0.0578076 0.0 
0.00751379 -0.015777 0.0 
-0.0258463 -0.143751 0.0 
-0.17985 -0.213223 0.0 
0.0149662 0.0259614 0.0 
0.0204195 -0.00083087 0.0 
-0.0311267 0.0397004 0.0 
-0.0334424 0.0345027 0.0 
-0.036958 0.0276661 0.0 
0.319088 -0.0874687 0.0 
-0.0456502 0.0536966 0.0 
-0.250256 -0.174804 0.0 
0.0318891 0.019103 0.0 
-0.199375 -0.198394 0.0 
-0.201631 -0.204177 0.0 
-0.0284267 0.0451866 0.0 
-0.00239102 0.012519 0.0 
-0.193315 -0.0675616 0.0 
-0.14422 -0.174747 0.0 
-0.19597 -0.208248 0.0 
-0.239536 -0.176435 0.0 
-0.0278951 0.0213559 0.0 
-0.0605229 0.055169 0.0 
0.0270164 -0.000375122 0.0 
-0.211311 -0.204676 0.0 
-0.0426987 -0.0619761 0.0 
-0.209251 -0.0787131 0.0 
-0.0348722 0.0425625 0.0 
-0.216793 -0.226916 0.0 
-0.0514597 0.0496425 0.0 
0.00468813 0.0103849 0.0 
-0.238282 -0.111241 0.0 
0.0140457 0.0247986 0.0 
-0.182285 -0.0306376 0.0 
-0.177788 -0.186731 0.0 
0 0 0.0 
-0.168252 -0.186095 0.0 
-0.206597 -0.195518 0.0 
-0.218765 -0.0834922 0.0 
-0.0398352 0.0347534 0.0 
0.00793744 -0.00025519 0.0 
0.0220738 0.0238834 0.0 
-0.132438 -0.135028 0.0 
0.144228 -0.00460303 0.0 
-0.191795 -0.199411 0.0 
0.0632407 -0.00273233 0.0 
-0.0221241 0.0420752 0.0 
-0.00875763 0.011625 0.0 
-0.0586935 0.0504528 0.0 
-0.0406324 0.0325689 0.0 
-0.00591932 0.0175047 0.0 
-0.00272251 0.00114073 0.0 
-0.202879 -0.203267 0.0 
-0.0137324 0.0376559 0.0 
-0.0161923 0.0311207 0.0 
0.0352417 -0.000154523 0.0 
0.039425 -0.00188769 0.0 
0.00950493 0.0298557 0.0 
-0.0361838 -0.0223934 0.0 
-0.216945 -0.18947 0.0 
-0.198359 -0.0283906 0.0 
0.00786213 0.00102111 0.0 
0.0140014 -0.212901 0.0 
-0.122597 -0.16783 0.0 
-0.219058 -0.216557 0.0 
-0.0255118 -0.0887858 0.0 
-0.00695568 0.00265763 0.0 
0 0 0.0 
0.00028882 0.00660527 0.0 
0.0174896 -0.0181874 0.0 
0 0 0.0 
0.0228298 -0.000558195 0.0 
0.0246399 0.0278952 0.0 
0.18816 -0.00528266 0.0 
0.0238184 0.0340971 0.0 
0.116434 -0.00408719 0.0 
0.454291 -0.00452261 0.0 
0 0 0.0 
-0.163647 -0.188078 0.0 
0.0607342 0.0145764 0.0 
0.109317 -0.00348838 0.0 
-0.036783 0.0285222 0.0 
-0.0202576 0.0297816 0.0 
-0.00561033 0.00322914 0.0 
0.0687349 -0.0185134 0.0 
-0.211061 -0.163535 0.0 
0 0 0.0 
-0.222785 -0.109012 0.0 
-0.0550233 0.0476022 0.0 
-0.00807798 0.00563541 0.0 
0.000573718 0.0174456 0.0 
-0.022165 0.0158956 0.0 
-0.00867958 -0.011697 0.0 
0 0 0.0 
-0.173849 -0.154615 0.0 
0 0 0.0 
-0.0291262 0.00444613 0.0 
-0.18963 -0.223634 0.0 
0.0363878 0.00762622 0.0 
-0.00151901 0.0151001 0.0 
0.0858657 -0.00322821 0.0 
-0.0113878 0.00827446 0.0 
-0.00767608 0.00894343 0.0 
0.0729236 0.025828 0.0 
0.000706129 0.00154738 0.0 
0.191453 -0.05377 0.0 
0 0 0.0 
-0.0288074 0.0188269 0.0 
-0.048713 0.0406006 0.0 
-0.00688893 0.00258068 0.0 
0.06148 0.0275595 0.0 
-0.0247397 0.0495811 0.0 
0.00965565 0.00600374 0.0 
-0.233695 -0.190801 0.0 
-0.0371164 0.0496385 0.0 
0.0908831 -0.0307295 0.0 
0.0412886 0.021868 0.0 
0.010675 0.03797 0.0 
-0.170923 -0.180839 0.0 
-0.188042 -0.0260713 0.0 
-0.126069 -0.154877 0.0 
-0.0488812 0.055254 0.0 
-0.227439 -0.20084 0.0 
-0.0105416 0.00424328 0.0 
0.308492 -0.00597406 0.0 
-0.00143005 0.000659752 0.0 
0.00564143 0.0381872 0.0 
0 0 0.0 
-0.00689761 0.00266666 0.0 
-0.0206271 0.00864129 0.0 
-0.0140638 0.0325925 0.0 
-0.198456 -0.190423 0.0 
0.262441 -0.00540386 0.0 
-0.0129026 0.0058823 0.0 
-0.157549 -0.178557 0.0 
-0.0511221 0.0542451 0.0 
-0.240691 -0.183241 0.0 
0.0414529 -0.00150712 0.0 
0.0325248 -0.00364426 0.0 
0.338255 -0.0054495 0.0 
0.188043 -0.00510428 0.0 
-0.201533 -0.200996 0.0 
0 0 0.0 
0.0136332 0.0121094 0.0 
-0.147626 -0.155381 0.0 
-0.104543 -0.112384 0.0 
-0.145274 -0.150983 0.0 
-0.0306167 0.0224812 0.0 
-0.0234054 -0.00236429 0.0 
-0.242173 -0.125757 0.0 
-0.0866035 -0.0966514 0.0 
-0.0401406 -0.121373 0.0 
0.0849937 -0.00319666 0.0 
-0.0850775 -0.0737064 0.0 
0.0230421 0.0372563 0.0 
0.35008 -0.00525515 0.0 
0.00626486 0.0275108 0.0 
0.113311 -0.00383336 0.0 
-0.206472 -0.212839 0.0 
-0.221047 -0.155359 0.0 
0.0406128 -0.0579692 0.0 
-0.244499 -0.206167 0.0 
0.000357693 0.00182476 0.0 
-0.0354664 -0.130756 0.0 
0.242998 -0.00575127 0.0 
0.112351 0.00320409 0.0 
-0.138019 -0.165176 0.0 
-0.122765 -0.131536 0.0 
0.0106269 0.000291687 0.0 
0.478275 -0.00438048 0.0 
0.283331 -0.00561863 0.0 
0.0186479 -0.0976693 0.0 
-0.00638827 -0.00363754 0.0 
-0.185903 -0.112346 0.0 
-0.247183 -0.144808 0.0 
-0.106503 -0.145618 0.0 
-0.0801847 -0.14207 0.0 
-0.229087 -0.222246 0.0 
-0.216295 -0.198057 0.0 
0.00314877 -0.114037 0.0 
0.000958926 0.00118831 0.0 
0.0597938 -0.00220721 0.0 
-0.00880808 0.0167902 0.0 
-0.00345212 0.00583312 0.0 
-0.203146 -0.221973 0.0 
-0.245757 -0.177184 0.0 
0.832511 -0.0603104 0.0 
0.136005 -0.00470295 0.0 
0.0256852 -0.0714208 0.0 
0 0 0.0 
-0.00194666 0.000584319 0.0 
-0.0949416 -0.151649 0.0 
0.576933 -0.00485469 0.0 
0.0243918 0.0077628 0.0 
0.02613 -0.038594 0.0 
-0.0110048 0.0421203 0.0 
-0.0679184 -0.102665 0.0 
0 0 0.0 
0.102652 -0.00298819 0.0 
-0.179317 -0.217178 0.0 
0.0231676 0.000890586 0.0 
0.0757304 0.0266397 0.0 
-0.0230406 0.0156375 0.0 
-0.0474926 0.0403065 0.0 
-0.226607 -0.0930077 0.0 
0.000829816 0.000201297 0.0 
-0.056536 0.0556928 0.0 
-0.193908 -0.212498 0.0 
-0.185664 -0.213551 0.0 
0.0777776 -0.0433496 0.0 
-0.189714 -0.192129 0.0 
-0.00128397 0.000448377 0.0 
-0.212498 -0.201866 0.0 
-0.0184359 0.0462554 0.0 
-0.0332258 0.0244884 0.0 
-0.19032 -0.10159 0.0 
-0.0363269 -0.00976539 0.0 
-0.194912 -0.19222 0.0 
0.396444 -0.00529631 0.0 
0.00440753 0.000162861 0.0 
0 0 0.0 
-0.155215 -0.163959 0.0 
0.00844214 0.0365461 0.0 
-0.222597 -0.195705 0.0 
-0.201673 -0.0443961 0.0 
0.173164 -0.0432321 0.0 
0 0 0.0 
-0.186778 -0.190493 0.0 
-0.183565 -0.190307 0.0 
0.0287431 -0.0234324 0.0 
0.412956 -0.00463904 0.0 
-0.115222 -0.119203 0.0 
0.064164 -0.110956 0.0 
-0.196571 -0.134985 0.0 
-0.103484 -0.15708 0.0 
-0.194732 -0.100198 0.0 
0.0377693 -0.00107889 0.0 
-0.189755 -0.199803 0.0 
-0.167079 -0.192485 0.0 
-0.194795 -0.0625639 0.0 
0.0227592 0.0176054 0.0 
0.0116968 -0.05673 0.0 
-0.0239778 -0.0703926 0.0 
-0.131089 -0.136857 0.0 
0.26245 -0.00610339 0.0 
-0.0555868 0.0537103 0.0 
-0.141732 -0.169761 0.0 
-0.158193 -0.174062 0.0 
0.0512854 0.023604 0.0 
-0.0557837 -0.0655294 0.0 
0.0502436 0.0274055 0.0 
-0.142469 -0.165912 0.0 
-0.136102 -0.158242 0.0 
-0.214508 -0.137588 0.0 
-0.149193 -0.158861 0.0 
-0.212187 -0.223498 0.0 
-0.21032 -0.212936 0.0 
0.788044 -0.0663357 0.0 
-0.0113103 -0.0881164 0.0 
-0.240475 -0.153937 0.0 
-0.00265475 -0.0741792 0.0 
-0.204406 -0.192995 0.0 
0.0743506 0.0255699 0.0 
-0.238055 -0.16688 0.0 
0.00378793 0.00721203 0.0 
0.0100178 0.000593429 0.0 
-0.249695 -0.161462 0.0 
0.19252 -0.00543046 0.0 
0.367017 -0.0019044 0.0 
0.0322087 -0.00117071 0.0 
-0.0285429 0.0174839 0.0 
0.151841 -0.00463004 0.0 
-0.175417 -0.184099 0.0 
-0.048861 0.0396143 0.0 
-0.207547 -0.229176 0.0 
-0.204106 -0.216524 0.0 
-0.00537543 0.0441394 0.0 
-0.0492746 -0.0891155 0.0 
0.00948987 0.000131736 0.0 
-0.229259 -0.184672 0.0 
-0.195386 -0.22038 0.0 
0.138876 -0.00399875 0.0 
-0.236477 -0.196785 0.0 
0.0176263 -0.010712 0.0 
-0.0275388 -0.023734 0.0 
0.0227583 -0.0855924 0.0 
0.22937 -0.00556557 0.0 
0.0563311 -0.00912113 0.0 
0.0458404 0.0324201 0.0 
0.0170264 -0.000780416 0.0 
0.0474283 -0.00100862 0.0 
-0.0533187 0.0407629 0.0 
-0.175433 -0.146878 0.0 
-0.0384111 0.0283303 0.0 
0.0976746 -0.00392227 0.0 
-0.0386234 0.0271046 0.0 
0.029346 0.0357134 0.0 
0.0227846 0.000219913 0.0 
0.000645762 0.00101418 0.0 
-0.137987 -0.155329 0.0 
0.558367 -0.0037437 0.0 
-0.00882232 0.00659706 0.0 
0.00850299 0.0238605 0.0 
-0.202827 -0.21009 0.0 
0 0 0.0 
0.0948159 0.0230024 0.0 
-0.0279408 0.017999 0.0 
-0.0498271 -0.0275503 0.0 
-0.231601 -0.21152 0.0 
-0.0449078 0.0369073 0.0 
0.0500607 -0.103259 0.0 
-0.237409 -0.119266 0.0 
-0.0780246 -0.105358 0.0 
-0.233206 -0.178526 0.0 
-0.221113 -0.214581 0.0 
-0.0615788 0.0529215 0.0 
0 0 0.0 
-0.211127 -0.206274 0.0 
-0.247283 -0.153016 0.0 
0.284623 -0.00597816 0.0 
0.0536147 -0.00157578 0.0 
0.0190785 0.000714229 0.0 
-0.0995507 -0.136027 0.0 
-0.0414694 0.0540457 0.0 
-0.214031 -0.209758 0.0 
-0.165673 -0.175035 0.0 
0.0118003 -0.00318271 0.0 
-0.210661 -0.203754 0.0 
-0.14424 -0.150797 0.0 
-0.208668 -0.226357 0.0 
-0.249989 -0.160416 0.0 
-0.170852 -0.18355 0.0 
0.0356753 -0.0183897 0.0 
-0.0132935 0.00761654 0.0 
0.0134547 0.00832304 0.0 
-0.00335999 0.0317293 0.0 
0 0 0.0 
0 0 0.0 
-0.203564 -0.123773 0.0 
-0.0100358 0.00738041 0.0 
-0.209663 -0.0805445 0.0 
0.0288198 -0.0115102 0.0 
0.00142412 0.0409739 0.0 
0.0134768 0.0389164 0.0 
-0.00579676 0.00204383 0.0 
-0.20973 -0.22107 0.0 
-0.213754 -0.105997 0.0 
-0.1579 -0.170673 0.0 
0.00478378 0.00848174 0.0 
-0.244944 -0.133892 0.0 
0.0152801 -0.0697936 0.0 
-0.0672439 -0.058892 0.0 
0 0 0.0 
-0.210709 -0.0480568 0.0 
-0.23629 -0.217919 0.0 
-0.177848 -0.193841 0.0 
-0.0922751 -0.120392 0.0 
0.0266622 0.0179276 0.0 
-0.224665 -0.1262 0.0 
-0.0244009 0.0230976 0.0 
-0.0103352 -0.0405693 0.0 
-0.175972 -0.200007 0.0 
0.0762575 -0.00227173 0.0 
-0.00779818 -0.10386 0.0 
0.0517226 0.0215767 0.0 
0.00366444 0.000298044 0.0 
0.00278648 0.000435048 0.0 
-0.0386177 0.0454246 0.0 
-0.00508299 0.00299185 0.0 
-0.0409022 0.0326448 0.0 
-0.205762 -0.0617864 0.0 
-0.0117355 0.0279843 0.0 
0.00384234 -0.00131128 0.0 
0 0 0.0 
-0.0378437 0.0379187 0.0 
-0.200573 -0.226549 0.0 
0.191684 -0.00533431 0.0 
-0.0452676 -0.0593325 0.0 
0.118102 -0.00415119 0.0 
-0.0428799 0.0426413 0.0 
0.0423023 0.0265389 0.0 
-0.000475294 0.000349033 0.0 
0.00520273 -0.0224775 0.0 
-0.221681 -0.225668 0.0 
-0.0547744 0.0454646 0.0 
0.0601573 0.0293551 0.0 
-0.0105178 0.00582983 0.0 
-0.146524 -0.158166 0.0 
-0.248385 -0.202241 0.0 
-0.0030051 0.00106262 0.0 
-0.165864 -0.175475 0.0 
-0.172307 -0.182142 0.0 
-0.212813 -0.203855 0.0 
-0.0132341 0.00974339 0.0 
0.432772 -0.00519509 0.0 
0 0 0.0 
0.0918917 -0.00344849 0.0 
-0.0177254 0.0240007 0.0 
0.386027 -0.00435808 0.0 
0 0 0.0 
0.0427021 -0.011933 0.0 
0.151968 -0.00484059 0.0 
-0.00366548 0.0382104 0.0 
-0.111267 -0.133734 0.0 
-9.66007e-05 0.000249554 0.0 
0.00938915 -0.0113653 0.0 
-0.007198 0.00312559 0.0 
-0.0298728 0.0207072 0.0 
0.00161934 0.0420894 0.0 
0.337946 -0.00616016 0.0 
-0.121451 -0.12282 0.0 
-0.189013 -0.076761 0.0 
0.382949 -0.00563801 0.0 
-0.101585 -0.103415 0.0 
-0.239849 -0.137476 0.0 
0 0 0.0 
0.429283 -0.00455718 0.0 
-0.242219 -0.196515 0.0 
-0.0243604 0.016958 0.0 
-0.168571 -0.182186 0.0 
-0.0950203 -0.11623 0.0 
-0.123606 -0.118887 0.0 
0.734387 -0.0729691 0.0 
-0.222177 -0.212175 0.0 
0 0 0.0 
-0.236182 -0.208477 0.0 
0.0235291 0.0310233 0.0 
-0.223959 -0.225009 0.0 
0.155098 -0.00490088 0.0 
-0.0745901 -0.0970573 0.0 
-0.211218 -0.228101 0.0 
-0.0105051 0.00540213 0.0 
-0.00845329 0.00513642 0.0 
-0.152832 -0.178042 0.0 
-0.0192567 0.0204169 0.0 
-0.000978557 0.0183404 0.0 
-0.0582176 0.0465688 0.0 
-0.00759612 0.00552492 0.0 
-0.0603467 -0.090587 0.0 
0.00147844 0.0253911 0.0 
0.376959 -0.0050579 0.0 
-0.167243 -0.182281 0.0 
0.00486629 0.0351428 0.0 
0.0534673 -0.0184283 0.0 
0.0467574 0.0316328 0.0 
-0.00588743 0.00345819 0.0 
-0.0124972 0.0463614 0.0 
-0.177331 -0.187568 0.0 
0.0442357 -0.00134007 0.0 
-0.0248109 0.0144087 0.0 
0.514311 -0.00424354 0.0 
-0.244513 -0.140421 0.0 
-0.169187 -0.0236655 0.0 
0 0 0.0 
-0.0144001 0.00840064 0.0 
0.225253 -0.0058263 0.0 
-0.0190014 0.0147752 0.0 
-0.156972 -0.14795 0.0 
-0.207943 -0.214788 0.0 
0 0 0.0 
-0.2292 -0.160488 0.0 
-0.246178 -0.20586 0.0 
0.182614 -0.00526658 0.0 
0.0143874 0.0112313 0.0 
-0.0253951 -0.0420741 0.0 
-0.124648 -0.148123 0.0 
0.0727537 -0.00170232 0.0 
-0.0525894 0.0417768 0.0 
-0.14214 -0.174163 0.0 
-0.221484 -0.0942592 0.0 
-0.0224552 0.016644 0.0 
0.0125516 -0.000269655 0.0 
-0.108736 -0.181338 0.0 
-0.0576099 0.0525798 0.0 
0.0502412 0.0147099 0.0 
0.530403 -0.00377577 0.0 
-0.156925 -0.166735 0.0 
-0.101141 -0.130773 0.0 
0.238423 -0.0652278 0.0 
-0.0302816 0.0272199 0.0 
0.441543 -0.00453668 0.0 
-0.00278036 0.00152582 0.0 
-0.149905 -0.179695 0.0 
0 0 0.0 
0 0 0.0 
0 0 0.0 
-0.239715 -0.21118 0.0 
-0.00374843 0.0013467 0.0 
-0.00458809 0.00163062 0.0 
0 0 0.0 
0.042864 -0.0266536 0.0 
-0.0107078 0.0351639 0.0 
-0.0245766 0.0270929 0.0 
-0.171741 -0.184797 0.0 
-0.185379 -0.199097 0.0 
0 0 0.0 
0.0358508 0.0318306 0.0 
-0.00430593 0.00131405 0.0 
-0.0374462 -0.104216 0.0 
-0.0827032 -0.134499 0.0 
-0.200163 -0.199328 0.0 
0.0561468 -0.00113582 0.0 
-0.0116935 0.00573625 0.0 
-0.0571689 -0.0570906 0.0 
-0.185643 -0.191571 0.0 
-0.249518 -0.196573 0.0 
0.124921 0.00854218 0.0 
-0.0251242 -0.105311 0.0 
0.0907423 0.0212439 0.0 
-0.0519512 0.0453653 0.0 
-0.00791487 0.0258025 0.0 
0.00857407 0.0015449 0.0 
0.0904065 -0.107327 0.0 
-0.00802746 0.00654055 0.0 
-0.00460614 0.00217651 0.0 
-0.0612991 -0.1385 0.0 
-0.0667916 -0.000844979 0.0 
-0.222073 -0.136658 0.0 
-0.0432734 0.0348211 0.0 
0 0 0.0 
0 0 0.0 
-0.196907 -0.196605 0.0 
0.0603277 0.00568925 0.0 
0.000615197 0.0391137 0.0 
-0.0245977 0.0183638 0.0 
-0.201109 -0.0875494 0.0 
-0.00340538 0.00206538 0.0 
0.000433512 -0.0344044 0.0 
0.232039 -0.0186726 0.0 
-0.108978 -0.107372 0.0 
-0.212659 -0.122959 0.0 
0.0193251 0.0337419 0.0 
0 0 0.0 
-0.0515607 -0.104692 0.0 
-0.223174 -0.175485 0.0 
0.00406504 -0.0876385 0.0 
-0.20116 -0.196008 0.0 
-0.0311992 0.0226167 0.0 
-0.143179 -0.202781 0.0 
-0.0212296 0.0144446 0.0 
-0.172158 -0.163213 0.0 
-0.179265 -0.202003 0.0 
0.111697 0.0177839 0.0 
0.0319174 0.0285325 0.0 
-0.00884203 -0.0275535 0.0 
-0.110152 -0.127314 0.0 
0.601198 -0.0116353 0.0 
-0.0601174 -0.117713 0.0 
-0.0936255 -0.184388 0.0 
0.899972 -0.0554971 0.0 
0.0140108 0.0362696 0.0 
-0.054352 0.0559103 0.0 
-0.0120657 0.00886705 0.0 
0.00308693 0.00227117 0.0 
0.583167 -0.0694423 0.0 
-0.171835 -0.183372 0.0 
-0.0677522 -0.0833102 0.0 
-0.0442204 0.0391005 0.0 
0.221161 -0.0888346 0.0 
-0.0151193 0.00816965 0.0 
-0.12543 -0.145251 0.0 
0 0 0.0 
0.257168 -0.0205704 0.0 
-0.0232133 0.0127711 0.0 
-0.112888 -0.153894 0.0 
0 0 0.0 
-0.00624503 0.00256026 0.0 
-0.24956 -0.187477 0.0 
-0.228861 -0.19043 0.0 
-0.0330451 0.0254845 0.0 
-0.124634 -0.163771 0.0 
0.472984 -0.062026 0.0 
0.305689 -0.00062497 0.0 
0.737678 -0.0713112 0.0 
0.216481 -0.104813 0.0 
-0.143024 -0.160694 0.0 
-0.0284277 -0.176772 0.0 
-0.202546 -0.166789 0.0 
0.454009 -0.0828906 0.0 
-0.0110176 0.00806914 0.0 
-0.0135736 0.0100121 0.0 
0.359095 -0.0917441 0.0 
0.0381104 0.0150359 0.0 
-0.00669384 0.00476138 0.0 
0.674692 -0.0753 0.0 
-0.227297 -0.203942 0.0 
-0.146913 -0.166982 0.0 
0.0122711 0.0328051 0.0 
-0.0385694 -0.0890726 0.0 
-0.0372963 -0.0700177 0.0 
-0.189383 -0.161689 0.0 
-0.00763712 0.0429893 0.0 
-0.0209594 0.0155265 0.0 
-0.0211366 -0.0138617 0.0 
0 0 0.0 
-0.0729585 -0.153264 0.0 
0.196582 -0.0357454 0.0 
-0.0512828 -0.119287 0.0 
0.375082 -0.00763744 0.0 
-0.221261 -0.209118 0.0 
0.221134 -0.0295557 0.0 
0 0 0.0 
-0.12848 -0.179966 0.0 
-0.197739 -0.203039 0.0 
-0.0916635 -0.135094 0.0 
0.206115 -0.0119996 0.0 
-0.0168317 0.0088291 0.0 
-0.0201994 0.010468 0.0 
-0.185158 -0.168328 0.0 
0.476411 -0.0513918 0.0 
0.205218 0.00714824 0.0 
-0.194125 -0.219095 0.0 
0.0175283 0.029165 0.0 
-0.131753 -0.131929 0.0 
-0.00506649 0.00163604 0.0 
0.297932 -0.00364344 0.0 
0.30056 0.00122366 0.0 
-0.00586391 0.0332931 0.0 
0 0 0.0 
-0.0155282 0.00713661 0.0 
0 0 0.0 
0.18124 -0.07196 0.0 
-0.00687811 0.00348557 0.0 
-0.0114798 0.00506138 0.0 
-0.0167043 -0.0210765 0.0 
-0.0203493 0.0129698 0.0 
-0.00076638 -0.0133522 0.0 
-0.0220531 0.0371574 0.0 
-0.04141 0.0328874 0.0 
0.0145047 -0.0303385 0.0 
0 0 0.0 
0.12593 -0.0568818 0.0 
0.0330922 0.0351242 0.0 
-0.000918579 -0.0340762 0.0 
0.0236461 0.0208114 0.0 
-0.213008 -0.219117 0.0 
0.17393 -0.00360475 0.0 
0.319221 -0.00273972 0.0 
-0.0771697 -0.0745398 0.0 
-0.169271 -0.180981 0.0 
-0.00697874 0.00281464 0.0 
-0.162225 -0.172969 0.0 
-0.0881357 -0.0915611 0.0 
-0.0394555 0.0306444 0.0 
-0.0120236 0.0412436 0.0 
-0.160481 0.0386053 0.0 
-0.195372 -0.205679 0.0 
0.230263 0.00438627 0.0 
-0.0888767 -0.105671 0.0 
0.0440467 -0.0480333 0.0 
0.0834465 -0.00783418 0.0 
0.0016339 0.0286467 0.0 
-0.239612 -0.212 0.0 
-0.245515 -0.187692 0.0 
-0.00683057 0.00284107 0.0 
0.0244136 0.0361321 0.0 
-0.126541 -0.16752 0.0 
-0.218154 -0.21917 0.0 
0.114056 0.0149975 0.0 
-0.0426331 0.0341922 0.0 
0.133597 0.0133954 0.0 
0.0277037 0.0325122 0.0 
0.153877 -0.0150644 0.0 
-0.010778 0.0232644 0.0 
0.1313 0.0176177 0.0 
-0.152595 -0.002022 0.0 
-0.0450039 0.0498338 0.0 
-0.238676 -0.215592 0.0 
-0.200282 -0.153292 0.0 
-0.0411898 0.0307374 0.0 
-0.0166499 0.0168776 0.0 
0.335373 -0.00208217 0.0 
-0.0387457 -0.0362046 0.0 
-0.0978654 -0.151572 0.0 
-0.0802544 -0.146945 0.0 
0.414789 -0.0108109 0.0 
0 0 0.0 
-0.220596 -0.223604 0.0 
-0.24461 -0.210955 0.0 
-0.183795 -0.175292 0.0 
-0.233963 -0.102773 0.0 
0.351836 -0.00363892 0.0 
-0.00374562 0.00226937 0.0 
-0.205589 -0.108193 0.0 
-0.220941 -0.221719 0.0 
-0.0187976 0.0139966 0.0 
-0.187135 -0.0539253 0.0 
-0.211709 -0.210808 0.0 
0.0348754 0.0317768 0.0 
-0.0160032 0.00768716 0.0 
0.21357 -0.0459988 0.0 
-0.0563378 -0.0804727 0.0 
-0.0192297 0.0467314 0.0 
-0.0339347 0.0514889 0.0 
-0.17871 -0.188222 0.0 
0 0 0.0 
0 0 0.0 
0.195352 -0.0208349 0.0 
-0.161067 -0.173661 0.0 
-0.00544346 0.00343131 0.0 
0 0 0.0 
0.0026565 0.0197848 0.0 
0.146828 0.00212161 0.0 
-0.0260811 0.029962 0.0 
0.472282 -0.00566024 0.0 
-0.218898 -0.211547 0.0 
-0.020729 0.0149567 0.0 
0.241325 -0.00227181 0.0 
-0.00492637 0.0245739 0.0 
-0.171955 0.0210181 0.0 
0.0577607 -0.0265414 0.0 
-0.240749 -0.186417 0.0 