<VTKFile type="UnstructuredGrid" version="0.1" byte_order="LittleEndian">
  <UnstructuredGrid>
    <Piece NumberOfPoints="14280" NumberOfCells="27805">
      <Points>
        <DataArray type = "Float64" NumberOfComponents="3" format="ascii">
1.24411 0.993018 0.0 
1.17921 0.984825 0.0 
1.19209 0.98532 0.0 
1.23447 0.990901 0.0 
1.20633 0.991422 0.0 
1.26648 0.999611 0.0 
1.21257 0.989017 0.0 
1.20301 0.990001 0.0 
1.28802 0.962809 0.0 
1.18842 0.986624 0.0 
1.24264 0.992892 0.0 
1.22073 0.990037 0.0 
1.29786 0.974135 0.0 
1.18864 0.987012 0.0 
1.19018 0.986878 0.0 
1.23959 0.992382 0.0 
1.19937 0.989251 0.0 
1.2242 0.981779 0.0 
1.22764 0.988939 0.0 
1.24328 0.99249 0.0 
1.27287 0.999911 0.0 
1.18956 0.986439 0.0 
1.22281 0.990577 0.0 
1.3954 0.992157 0.0 
1.16661 0.97118 0.0 
1.188 0.984919 0.0 
1.23052 0.960762 0.0 
1.18691 0.983831 0.0 
1.24517 0.992772 0.0 
1.44599 0.967463 0.0 
1.16671 0.972363 0.0 
1.19079 0.986263 0.0 
1.30017 0.964659 0.0 
1.20817 0.988014 0.0 
1.2259 0.988836 0.0 
1.17116 0.984148 0.0 
1.21382 0.990132 0.0 
1.20869 0.989222 0.0 
1.23576 0.99055 0.0 
1.23127 0.991566 0.0 
1.21638 0.990671 0.0 
1.21865 0.987803 0.0 
1.21232 0.954729 0.0 
1.29895 0.983425 0.0 
1.42677 0.990508 0.0 
1.18648 0.957692 0.0 
1.29877 1.00437 0.0 
1.21182 0.989552 0.0 
1.24184 0.991704 0.0 
1.2172 0.989935 0.0 
1.20512 0.988791 0.0 
1.16271 0.972972 0.0 
1.18918 0.986053 0.0 
1.2142 0.987614 0.0 
1.20324 0.990807 0.0 
1.22026 0.991778 0.0 
1.17885 0.985247 0.0 
1.21 0.990172 0.0 
1.2024 0.98668 0.0 
1.20889 0.986813 0.0 
1.18621 0.982101 0.0 
1.21314 0.990992 0.0 
1.19275 0.987579 0.0 
1.20834 0.955985 0.0 
1.22425 0.988614 0.0 
1.18125 0.982111 0.0 
1.23984 0.978408 0.0 
1.40374 0.978443 0.0 
1.20661 0.989724 0.0 
1.21441 0.98947 0.0 
1.22153 0.987962 0.0 
1.21229 0.987236 0.0 
1.21448 0.988922 0.0 
1.22293 0.991277 0.0 
1.20617 0.987633 0.0 
1.19558 0.986008 0.0 
1.2263 0.988372 0.0 
1.19039 0.970201 0.0 
1.49694 0.969334 0.0 
1.07167 0.891397 0.0 
1.1732 0.984021 0.0 
1.28718 0.986278 0.0 
1.23608 0.990976 0.0 
1.24016 0.995071 0.0 
1.16988 0.984813 0.0 
1.15672 0.96125 0.0 
1.21947 0.983966 0.0 
1.20465 0.986183 0.0 
1.18639 0.968795 0.0 
1.24968 0.975856 0.0 
1.15777 0.982909 0.0 
1.24522 0.991867 0.0 
1.21588 0.987274 0.0 
1.24855 0.991054 0.0 
1.40248 0.964865 0.0 
1.15743 0.961923 0.0 
1.22425 0.987777 0.0 
1.29922 0.972697 0.0 
1.21051 0.991659 0.0 
1.22047 0.987332 0.0 
1.21237 0.987708 0.0 
1.24186 0.990079 0.0 
1.20015 0.985513 0.0 
1.22939 0.988639 0.0 
1.26862 0.986414 0.0 
1.28763 1.0017 0.0 
1.18552 0.964083 0.0 
1.23713 0.990758 0.0 
1.21404 0.976672 0.0 
1.23092 0.980255 0.0 
1.2351 0.98555 0.0 
1.23529 0.990184 0.0 
1.18708 0.98642 0.0 
1.24571 0.991401 0.0 
1.24517 0.985794 0.0 
1.206 0.985266 0.0 
1.23308 0.992997 0.0 
1.23085 0.981587 0.0 
1.21912 0.989521 0.0 
1.23292 0.98763 0.0 
1.24299 0.991347 0.0 
1.19683 0.982198 0.0 
1.24443 0.990081 0.0 
1.2802 0.991067 0.0 
1.2707 0.988684 0.0 
1.21238 0.9823 0.0 
1.2576 0.989553 0.0 
1.40721 0.984243 0.0 
1.22161 0.985823 0.0 
1.2397 0.99092 0.0 
1.262 0.978929 0.0 
1.2213 0.980598 0.0 
1.19959 0.981364 0.0 
1.18302 0.985879 0.0 
1.24033 0.99122 0.0 
1.23922 0.961174 0.0 
1.18936 0.988051 0.0 
1.24713 0.99228 0.0 
1.26715 0.990012 0.0 
1.22243 0.983354 0.0 
1.30659 1.00484 0.0 
1.16809 0.964755 0.0 
1.24086 0.990458 0.0 
1.2109 0.987806 0.0 
1.20549 0.979562 0.0 
1.23338 0.989568 0.0 
1.26142 0.988751 0.0 
1.22293 0.977753 0.0 
1.21757 0.985302 0.0 
1.24836 0.984512 0.0 
1.17796 0.979011 0.0 
1.22979 0.989251 0.0 
1.16402 0.981584 0.0 
1.25733 0.99302 0.0 
1.19124 0.982124 0.0 
1.39281 0.997865 0.0 
1.22265 0.984905 0.0 
1.23603 0.993315 0.0 
1.23186 0.985943 0.0 
1.22687 0.9856 0.0 
1.2366 0.984753 0.0 
1.2302 0.985 0.0 
1.23967 0.985673 0.0 
1.16989 0.967809 0.0 
1.24147 0.984077 0.0 
1.26681 0.989265 0.0 
1.24514 0.987842 0.0 
1.24102 0.991091 0.0 
1.23424 0.990378 0.0 
1.23479 0.988926 0.0 
1.216 0.983087 0.0 
1.19485 0.983885 0.0 
1.23775 0.992269 0.0 
1.24757 0.988962 0.0 
1.18604 0.986016 0.0 
1.23306 0.972516 0.0 
1.35328 0.970115 0.0 
1.23845 0.990526 0.0 
1.23677 0.990255 0.0 
1.23468 0.983621 0.0 
1.24638 0.995913 0.0 
1.18193 0.985557 0.0 
1.23562 0.989789 0.0 
1.23162 0.97881 0.0 
1.27256 0.987226 0.0 
1.27111 0.992536 0.0 
1.21683 0.991431 0.0 
1.26052 0.98452 0.0 
1.22689 0.984096 0.0 
1.23671 0.989446 0.0 
1.21225 0.985225 0.0 
1.25617 0.992076 0.0 
1.23937 0.988479 0.0 
1.24319 0.985059 0.0 
1.21334 0.983787 0.0 
1.22932 0.974739 0.0 
1.20213 0.980493 0.0 
1.19129 0.984387 0.0 
1.227 0.992205 0.0 
1.51137 0.970062 0.0 
1.25617 0.987281 0.0 
1.25988 0.992114 0.0 
1.26156 0.99283 0.0 
1.24507 0.992235 0.0 
1.17286 0.979426 0.0 
1.22241 0.979159 0.0 
1.24806 0.988191 0.0 
1.23924 0.98712 0.0 
1.18501 0.985508 0.0 
1.21358 0.967456 0.0 
1.16511 0.963924 0.0 
1.23834 0.990957 0.0 
1.25975 0.987999 0.0 
1.184 0.985695 0.0 
1.24914 0.987404 0.0 
1.25386 0.988045 0.0 
1.26542 0.992292 0.0 
1.24927 0.983031 0.0 
1.2238 0.968366 0.0 
1.19347 0.982946 0.0 
1.24405 0.991812 0.0 
1.20783 0.98424 0.0 
1.28604 0.957948 0.0 
1.22689 0.975619 0.0 
1.24386 0.988555 0.0 
1.29478 1.00299 0.0 
1.23144 0.984153 0.0 
1.22794 0.971023 0.0 
1.25456 0.983868 0.0 
1.21103 0.980495 0.0 
1.20392 0.982265 0.0 
1.29114 0.991239 0.0 
1.23826 0.976034 0.0 
1.31163 0.986441 0.0 
1.23569 0.98713 0.0 
1.25771 0.982775 0.0 
1.18746 0.985655 0.0 
1.18895 0.977724 0.0 
1.24643 0.990877 0.0 
1.24598 0.992512 0.0 
1.20834 0.964421 0.0 
1.25945 0.986463 0.0 
1.20257 0.987203 0.0 
1.26197 0.985509 0.0 
1.24665 0.983665 0.0 
1.2496 0.985445 0.0 
1.23193 0.989014 0.0 
1.24787 0.992732 0.0 
1.23905 0.991295 0.0 
1.23669 0.991842 0.0 
1.25353 0.989194 0.0 
1.22901 0.986378 0.0 
1.24628 0.991927 0.0 
1.23958 0.982838 0.0 
1.23776 0.988999 0.0 
1.17008 0.96098 0.0 
1.28073 1.00036 0.0 
1.40527 0.994781 0.0 
1.12539 0.937679 0.0 
1.23731 0.987759 0.0 
1.17354 0.980468 0.0 
1.21637 0.981519 0.0 
1.24284 0.991898 0.0 
1.19911 0.98693 0.0 
1.28464 0.991903 0.0 
1.23015 0.990063 0.0 
1.18796 0.986201 0.0 
1.20058 0.984503 0.0 
1.24372 0.987229 0.0 
1.22771 0.99058 0.0 
1.25475 0.993496 0.0 
1.27707 0.986538 0.0 
1.21435 0.978142 0.0 
1.16258 0.963144 0.0 
1.31231 1.00359 0.0 
1.28671 0.988035 0.0 
1.46711 0.984888 0.0 
1.18338 0.981292 0.0 
1.24278 0.990674 0.0 
1.2447 0.990842 0.0 
1.26832 0.990677 0.0 
1.18706 0.986773 0.0 
1.25321 0.989938 0.0 
1.27194 0.991053 0.0 
1.23911 0.990193 0.0 
1.17842 0.986011 0.0 
1.24094 0.987832 0.0 
1.28881 0.988847 0.0 
1.33209 0.985097 0.0 
1.25799 0.998309 0.0 
1.16217 0.969068 0.0 
1.26439 0.998634 0.0 
1.20383 0.987453 0.0 
1.34515 0.999475 0.0 
1.19917 0.983236 0.0 
1.22531 0.986453 0.0 
1.25499 0.958318 0.0 
1.26227 0.989525 0.0 
1.24828 0.993116 0.0 
1.24157 0.995111 0.0 
1.25191 0.992749 0.0 
1.23424 0.974334 0.0 
1.28268 0.989559 0.0 
1.22855 0.989753 0.0 
1.21053 0.985931 0.0 
1.18436 0.98612 0.0 
1.19933 0.990447 0.0 
1.25088 0.98655 0.0 
1.24424 0.991316 0.0 
1.25311 0.99215 0.0 
1.21709 0.986771 0.0 
1.25025 0.959305 0.0 
1.2122 0.986606 0.0 
1.21602 0.986037 0.0 
1.22881 0.987123 0.0 
1.24829 0.992148 0.0 
1.17594 0.98524 0.0 
1.22836 0.987863 0.0 
1.23242 0.977208 0.0 
1.18836 0.961728 0.0 
1.21332 0.979394 0.0 
1.22086 0.986601 0.0 
1.19568 0.984928 0.0 
1.29906 0.990563 0.0 
1.20534 0.978409 0.0 
1.35326 0.998682 0.0 
1.2419 0.990978 0.0 
1.30591 0.989884 0.0 
1.18021 0.985628 0.0 
1.22026 0.98921 0.0 
1.17504 0.984879 0.0 
1.25499 0.984945 0.0 
1.18301 0.986238 0.0 
1.19136 0.969152 0.0 
1.23076 0.982655 0.0 
1.27614 0.991821 0.0 
1.27431 0.957507 0.0 
1.16239 0.983258 0.0 
1.19791 0.976413 0.0 
1.35833 1.00114 0.0 
1.2447 0.989305 0.0 
1.2546 0.99138 0.0 
1.24175 0.986481 0.0 
1.25173 0.991625 0.0 
1.24212 0.991404 0.0 
1.28476 0.99609 0.0 
1.35517 1.00003 0.0 
1.24945 0.991555 0.0 
1.33584 0.999936 0.0 
1.25416 0.992841 0.0 
1.24931 0.993313 0.0 
1.17724 0.9798 0.0 
1.25511 0.985795 0.0 
1.23212 0.988384 0.0 
1.25099 0.988615 0.0 
1.27497 0.990245 0.0 
1.17064 0.985578 0.0 
1.20797 0.983084 0.0 
1.26362 0.990701 0.0 
1.22826 0.983249 0.0 
1.23449 0.989348 0.0 
1.22173 0.982535 0.0 
1.25927 0.991199 0.0 
1.31142 0.987997 0.0 
1.21714 0.968789 0.0 
1.24101 0.979978 0.0 
1.23832 0.981396 0.0 
1.2155 0.98457 0.0 
1.24784 0.98201 0.0 
1.0985 0.921842 0.0 
1.26968 0.991797 0.0 
1.25019 0.992269 0.0 
1.20928 0.990953 0.0 
1.2064 0.990517 0.0 
1.24904 0.992747 0.0 
1.23654 0.98638 0.0 
1.22468 0.987191 0.0 
1.20492 0.987636 0.0 
1.20277 0.987667 0.0 
1.16087 0.981103 0.0 
1.34723 1.00096 0.0 
1.24126 0.989271 0.0 
1.2379 0.989947 0.0 
1.25619 0.988694 0.0 
1.23995 0.98991 0.0 
1.23871 0.989512 0.0 
1.2073 0.987505 0.0 
1.19981 0.986374 0.0 
1.19067 0.98353 0.0 
1.22274 0.976528 0.0 
1.17443 0.963993 0.0 
1.20904 0.987666 0.0 
1.18177 0.986753 0.0 
1.15968 0.956566 0.0 
1.39757 0.996955 0.0 
1.18861 0.981244 0.0 
1.22127 0.97395 0.0 
1.16914 0.985342 0.0 
1.29558 0.961608 0.0 
1.2402 0.990651 0.0 
1.16082 0.981913 0.0 
1.12881 0.95466 0.0 
1.18402 0.982926 0.0 
1.25042 0.992928 0.0 
1.30016 0.989151 0.0 
1.18816 0.953822 0.0 
1.24767 0.995488 0.0 
1.25116 0.997919 0.0 
1.25011 0.990119 0.0 
1.18416 0.978602 0.0 
1.11089 0.953893 0.0 
1.27929 0.988743 0.0 
1.29986 0.988219 0.0 
1.2736 0.989418 0.0 
1.24699 0.992782 0.0 
1.19357 0.981347 0.0 
1.26048 0.990255 0.0 
1.4945 0.981076 0.0 
1.19586 0.979595 0.0 
1.24737 0.991577 0.0 
1.40414 0.988078 0.0 
1.25607 0.990517 0.0 
1.28578 0.990373 0.0 
1.19326 0.980538 0.0 
1.25046 0.989417 0.0 
1.24734 0.989688 0.0 
1.25145 0.990821 0.0 
1.24804 0.990438 0.0 
1.26723 0.987978 0.0 
1.2215 0.972209 0.0 
1.15399 0.96518 0.0 
1.24613 0.986692 0.0 
1.19536 0.987334 0.0 
1.40367 0.995969 0.0 
1.13244 0.955593 0.0 
1.23497 0.99185 0.0 
1.23571 0.988363 0.0 
1.2019 0.973811 0.0 
1.25168 0.993556 0.0 
1.23036 0.992255 0.0 
1.38477 0.992457 0.0 
1.3925 0.995889 0.0 
1.19339 0.958054 0.0 
1.26475 0.991391 0.0 
1.19957 0.975237 0.0 
1.19658 0.971282 0.0 
1.16871 0.968864 0.0 
1.27414 0.959902 0.0 
[...]
<PointData>
  <DataArray type = "Float64" Name="Vitesse" NumberOfComponents="3" format="ascii">
-0.00424186 -0.000304618 0.0 
0.0167809 -0.00297734 0.0 
0.0256189 -0.00103888 0.0 
-0.00758591 0.00287888 0.0 
-0.0396945 -0.000553448 0.0 
0.0936271 -0.0135464 0.0 
-0.0127648 0.00234177 0.0 
-0.0307992 -0.000747693 0.0 
0.888801 0.0401154 0.0 
-0.00193499 -0.00380764 0.0 
-0.00624708 -5.70181e-05 0.0 
-0.0164594 0.0026373 0.0 
0.55887 0.0326713 0.0 
-0.00746954 -0.00419903 0.0 
-0.00371353 -0.00366558 0.0 
-0.00933671 0.000814895 0.0 
-0.0257056 -0.00173184 0.0 
0.165625 0.0148921 0.0 
0.00497573 0.00483285 0.0 
-0.00406724 0.000551933 0.0 
0.113347 -0.0146295 0.0 
0.00234805 -0.00329032 0.0 
-0.0194374 0.00231311 0.0 
0.287459 -0.000921121 0.0 
0.519187 0.0184596 0.0 
0.0275571 -0.00168992 0.0 
0.942451 0.0368959 0.0 
0.0488844 -0.000252585 0.0 
-0.00194165 9.47861e-05 0.0 
0.812688 0.0163989 0.0 
0.455394 0.0170866 0.0 
0.00679022 -0.00273368 0.0 
0.849072 0.0385523 0.0 
-0.0029548 0.00226193 0.0 
0.00421398 0.00474887 0.0 
0.018105 -0.00313738 0.0 
-0.024135 0.00155002 0.0 
-0.0185884 0.00138396 0.0 
-0.00264729 0.0034299 0.0 
-0.0167818 0.00179945 0.0 
-0.0268263 0.00145033 0.0 
0.0110546 0.00476578 0.0 
1.03797 0.0289143 0.0 
0.251428 0.0182482 0.0 
0.339936 0.000824865 0.0 
1.02223 0.0212387 0.0 
0.280073 -0.0254425 0.0 
-0.0198133 0.00171693 0.0 
-0.00256612 0.00180912 0.0 
-0.0190266 0.00226401 0.0 
-0.0161038 0.000833374 0.0 
0.41736 0.015673 0.0 
0.00826361 -0.00290813 0.0 
0.00923135 0.00406454 0.0 
-0.0372513 -0.00114024 0.0 
-0.0309393 0.000764122 0.0 
0.00864131 -0.00360097 0.0 
-0.0277418 0.000902056 0.0 
0.013073 0.00173959 0.0 
0.0173416 0.00361412 0.0 
0.091077 0.0026428 0.0 
-0.0322464 0.00073062 0.0 
-0.0109412 -0.00353788 0.0 
1.0288 0.0283603 0.0 
0.00531288 0.00479846 0.0 
0.0817794 0.00163052 0.0 
0.311142 0.0240946 0.0 
0.532161 0.0160903 0.0 
-0.0256612 0.000560966 0.0 
-0.0165265 0.0022521 0.0 
0.0119531 0.00514259 0.0 
0.0135441 0.00406149 0.0 
-0.00971003 0.00278624 0.0 
-0.0249192 0.00155716 0.0 
0.000996548 0.00208939 0.0 
0.0173922 -0.000430297 0.0 
0.0114526 0.00538965 0.0 
0.593417 0.0243544 0.0 
0.78244 0.0117624 0.0 
1.04795 -0.0672692 0.0 
0.0236817 -0.00265251 0.0 
0.158014 0.013004 0.0 
-0.00588075 0.00283604 0.0 
-0.00796114 -0.00326807 0.0 
0.00413801 -0.00427658 0.0 
0.976486 0.0122044 0.0 
0.094396 0.0101219 0.0 
0.0245243 0.00309626 0.0 
0.658484 0.0245093 0.0 
0.427098 0.0298846 0.0 
0.0234233 -0.0037377 0.0 
0.00179852 0.00154584 0.0 
0.0168054 0.00479072 0.0 
0.0129324 0.0030904 0.0 
0.855954 0.0219614 0.0 
0.956007 0.0132937 0.0 
0.0184033 0.00585062 0.0 
0.610522 0.034163 0.0 
-0.0384882 -7.58093e-05 0.0 
0.0212744 0.00571954 0.0 
0.00580272 0.0035811 0.0 
0.0112944 0.00432154 0.0 
0.0325751 0.00224028 0.0 
0.0115856 0.00545715 0.0 
0.119061 0.0125219 0.0 
0.184842 -0.0194458 0.0 
0.861632 0.0248776 0.0 
-0.00257051 0.00317898 0.0 
0.333652 0.02114 0.0 
0.227922 0.0190991 0.0 
0.0791031 0.0108875 0.0 
0.00032261 0.00392581 0.0 
-0.000337063 -0.00386513 0.0 
0.00551245 0.00231667 0.0 
0.0904821 0.0117501 0.0 
0.0447411 0.00455008 0.0 
-0.0203808 -4.60092e-05 0.0 
0.18299 0.0167382 0.0 
-0.0124718 0.00296221 0.0 
0.0329124 0.00741044 0.0 
0.00158297 0.00234718 0.0 
0.107857 0.00581719 0.0 
0.0151731 0.00436261 0.0 
0.0725587 0.00356606 0.0 
0.0812567 0.00822464 0.0 
0.129923 0.0107294 0.0 
0.0443271 0.00624791 0.0 
0.396935 0.009924 0.0 
0.0527117 0.00793071 0.0 
-0.000177596 0.00298323 0.0 
0.330519 0.025896 0.0 
0.199193 0.0161951 0.0 
0.13699 0.00814359 0.0 
0.0033302 -0.00386273 0.0 
-0.00160693 0.00254615 0.0 
0.930598 0.0385596 0.0 
-0.0202671 -0.00513552 0.0 
0.00295927 0.000930372 0.0 
0.0567949 0.0056182 0.0 
0.1157 0.0118201 0.0 
0.309959 -0.0261888 0.0 
0.843285 0.0198168 0.0 
0.00576284 0.00370874 0.0 
0.00275872 0.00311393 0.0 
0.207175 0.013259 0.0 
0.00457527 0.00467734 0.0 
0.0626526 0.0078731 0.0 
0.306342 0.0216503 0.0 
0.0588051 0.00770782 0.0 
0.127674 0.0144293 0.0 
0.173314 0.00705765 0.0 
0.00366707 0.00467791 0.0 
0.0652641 -0.000424454 0.0 
0.0187303 -0.000163265 0.0 
0.0999393 0.00398391 0.0 
0.318213 -0.0102061 0.0 
0.0753336 0.00947988 0.0 
-0.0168273 -0.000466545 0.0 
0.0651388 0.00979796 0.0 
0.0651863 0.0093418 0.0 
0.100964 0.0124095 0.0 
0.0846023 0.0109623 0.0 
0.0836901 0.011288 0.0 
0.700762 0.0210787 0.0 
0.127168 0.0142716 0.0 
0.0654419 0.00702335 0.0 
0.0485894 0.00818593 0.0 
0.00038648 0.002755 0.0 
-0.00312216 0.00359968 0.0 
0.0149924 0.00570191 0.0 
0.112877 0.0105321 0.0 
0.0607823 0.00226961 0.0 
-0.0114838 0.00100814 0.0 
0.034807 0.00656867 0.0 
0.00490288 -0.00355283 0.0 
0.539873 0.0323148 0.0 
0.728647 0.0283425 0.0 
0.00148026 0.00355293 0.0 
0.00167213 0.00389384 0.0 
0.128149 0.0139965 0.0 
0.00696847 -0.00520355 0.0 
0.00735973 -0.00359835 0.0 
0.00511483 0.00450983 0.0 
0.281347 0.0218124 0.0 
0.110138 0.0110822 0.0 
0.0464162 0.00071642 0.0 
-0.0321373 0.000809083 0.0 
0.149736 0.0156551 0.0 
0.102405 0.011679 0.0 
0.0108578 0.0050694 0.0 
0.0533148 0.00639098 0.0 
0.0196931 0.00157928 0.0 
0.0286243 0.00670786 0.0 
0.10459 0.0127958 0.0 
0.089863 0.00870791 0.0 
0.440316 0.0282893 0.0 
0.16918 0.0105102 0.0 
0.0436334 6.88786e-05 0.0 
-0.025606 0.000731949 0.0 
0.770118 0.010647 0.0 
0.0782591 0.0102937 0.0 
0.0264484 0.00155217 0.0 
0.0271341 0.000207535 0.0 
-0.000225818 0.000945051 0.0 
0.148484 0.00542423 0.0 
0.252105 0.019019 0.0 
0.0476973 0.00794094 0.0 
0.0521096 0.00884008 0.0 
0.01231 -0.00305179 0.0 
0.734092 0.032719 0.0 
0.878945 0.0181693 0.0 
-0.00247936 0.00291024 0.0 
0.0716707 0.00920921 0.0 
0.00769685 -0.00346982 0.0 
0.0635336 0.00941134 0.0 
0.0601246 0.00873639 0.0 
0.0362688 0.0012041 0.0 
0.171033 0.0172683 0.0 
0.703436 0.0346568 0.0 
0.0818466 0.00328326 0.0 
0.000272196 0.00160164 0.0 
0.0706369 0.00643808 0.0 
0.968857 0.0392313 0.0 
0.39957 0.0263341 0.0 
0.0345389 0.0068392 0.0 
0.233076 -0.0224072 0.0 
0.108312 0.0125333 0.0 
0.596816 0.033144 0.0 
0.156512 0.0163514 0.0 
0.184893 0.0133396 0.0 
0.117448 0.00809063 0.0 
0.0936696 0.00306076 0.0 
0.401512 0.0279242 0.0 
0.202123 0.0121886 0.0 
0.0463657 0.00849818 0.0 
0.193863 0.0186176 0.0 
0.0129754 -0.00284002 0.0 
0.244334 0.011981 0.0 
0.0107034 0.00321939 0.0 
0.000109791 0.000516604 0.0 
0.846598 0.0319016 0.0 
0.101149 0.0120287 0.0 
0.00446383 0.00128012 0.0 
0.127443 0.0139405 0.0 
0.147755 0.0157399 0.0 
0.106457 0.0129072 0.0 
0.00973898 0.00530317 0.0 
0.00260273 0.000194984 0.0 
-0.00403365 0.00241462 0.0 
-0.0109523 0.00162133 0.0 
0.041831 0.00666387 0.0 
0.0514021 0.00859828 0.0 
0.00323981 0.0014828 0.0 
0.159152 0.0161576 0.0 
0.0184062 0.00580716 0.0 
0.96994 0.0174632 0.0 
0.139574 -0.0162456 0.0 
0.308292 -0.00515011 0.0 
1.10237 -0.0269313 0.0 
0.0373164 0.00768854 0.0 
0.115298 0.00353979 0.0 
0.160416 0.0131916 0.0 
-0.0020998 0.00149802 0.0 
0.0054277 0.000141531 0.0 
0.0762929 0.00180292 0.0 
-0.00545504 0.00365753 0.0 
0.0042626 -0.00341345 0.0 
0.0548195 0.00371191 0.0 
0.0575149 0.0090754 0.0 
-0.0136727 0.00274631 0.0 
0.0135504 -0.00095919 0.0 
0.13305 0.0125536 0.0 
0.275913 0.0185709 0.0 
0.910224 0.0166237 0.0 
0.286779 -0.023427 0.0 
0.123291 0.00962623 0.0 
0.449425 0.00614352 0.0 
0.108925 0.00353429 0.0 
0.00666184 0.00340756 0.0 
0.00831368 0.00315417 0.0 
0.0523755 0.00434864 0.0 
-0.00574472 -0.00428485 0.0 
0.0318519 0.00533327 0.0 
0.0563514 0.00362027 0.0 
0.00577927 0.00406898 0.0 
-0.00441241 -0.0046235 0.0 
0.0417734 0.00781171 0.0 
0.114743 0.00798352 0.0 
0.268286 0.0137029 0.0 
0.0547269 -0.0102881 0.0 
0.632407 0.0190174 0.0 
0.0726932 -0.0113879 0.0 
0.00165657 0.00151581 0.0 
0.259039 -0.0142925 0.0 
0.0835522 0.00499362 0.0 
0.0444653 0.00780453 0.0 
0.975463 0.0393374 0.0 
0.0536269 0.00644105 0.0 
0.00248287 -0.000421463 0.0 
-0.00555178 -0.00345475 0.0 
0.0096105 0.000337867 0.0 
0.465082 0.0298985 0.0 
0.0928055 0.00658297 0.0 
-0.00406495 0.00387861 0.0 
0.0360838 0.00505422 0.0 
0.00110505 -0.00395257 0.0 
-0.0366366 -0.00247354 0.0 
0.08364 0.0110921 0.0 
0.00375865 0.00238496 0.0 
0.0139329 0.00143367 0.0 
0.0274572 0.00565506 0.0 
0.962344 0.0393039 0.0 
0.0247484 0.00473825 0.0 
0.0406088 0.00633721 0.0 
0.0362335 0.00747676 0.0 
0.00546924 0.00119963 0.0 
0.00488962 -0.00398465 0.0 
0.0223425 0.00636522 0.0 
0.344455 0.0248224 0.0 
0.936306 0.0247557 0.0 
0.22726 0.01599 0.0 
0.035496 0.0067311 0.0 
0.0387342 0.00106325 0.0 
0.115403 0.00431083 0.0 
0.249073 0.0153308 0.0 
0.260951 -0.0125383 0.0 
0.00266645 0.00292938 0.0 
0.136086 0.00556008 0.0 
0.00388254 -0.00390651 0.0 
-0.00745843 0.00346789 0.0 
0.010022 -0.00362993 0.0 
0.128627 0.0144205 0.0 
-0.00241542 -0.00430802 0.0 
0.644871 0.0255172 0.0 
0.149693 0.0148964 0.0 
0.0594582 0.00209241 0.0 
0.97829 0.0393605 0.0 
0.0229648 -0.00358427 0.0 
0.315107 0.016863 0.0 
0.316921 -0.0169529 0.0 
0.0252097 0.00565102 0.0 
0.0210094 0.00281245 0.0 
0.0692271 0.0101438 0.0 
0.0143542 0.00233406 0.0 
-0.000165673 0.00226168 0.0 
0.084941 -0.00701264 0.0 
0.288401 -0.0150127 0.0 
0.0107525 0.00229877 0.0 
0.249321 -0.0155997 0.0 
0.0133052 0.00022524 0.0 
0.00400881 -0.000745262 0.0 
0.144271 0.00537196 0.0 
0.108209 0.0128772 0.0 
0.0192196 0.00620843 0.0 
0.0458448 0.00748602 0.0 
0.0695927 0.00521879 0.0 
-0.00712471 -0.005126 0.0 
0.100754 0.00814594 0.0 
0.0430997 0.00424609 0.0 
0.128002 0.0133496 0.0 
0.00889584 0.00507227 0.0 
0.138163 0.0130025 0.0 
0.0308909 0.00325162 0.0 
0.172948 0.00919326 0.0 
0.681246 0.0327718 0.0 
0.25572 0.021504 0.0 
0.202407 0.0185204 0.0 
0.0732104 0.00819661 0.0 
0.199723 0.0189283 0.0 
1.08848 -0.05864 0.0 
0.0468984 0.00216583 0.0 
0.00821803 0.00111511 0.0 
-0.0347303 0.000226062 0.0 
-0.0331854 -1.46044e-05 0.0 
0.00456159 0.000229847 0.0 
0.0628069 0.00976341 0.0 
0.0292364 0.00668668 0.0 
-0.000165961 0.0017254 0.0 
-0.00260607 0.000916024 0.0 
0.0727645 -0.000310215 0.0 
0.292318 -0.0170778 0.0 
0.0199941 0.00556415 0.0 
0.00665597 0.00439177 0.0 
0.0538402 0.0077439 0.0 
0.0101387 0.00452765 0.0 
0.0130537 0.00508361 0.0 
0.00406633 0.0025099 0.0 
0.0158162 0.00109777 0.0 
0.062297 0.00129415 0.0 
0.35507 0.0237575 0.0 
0.869856 0.0212695 0.0 
0.00313041 0.00279872 0.0 
-0.0113101 -0.00506112 0.0 
1.05916 0.0084531 0.0 
0.314667 -0.00864415 0.0 
0.120342 0.00490885 0.0 
0.461346 0.027695 0.0 
-0.00534972 -0.0050528 0.0 
0.911663 0.0392772 0.0 
0.00293423 0.00340604 0.0 
0.0511596 -0.0017546 0.0 
1.10322 -0.0132729 0.0 
0.06554 0.000707179 0.0 
0.00651511 -3.00667e-05 0.0 
0.13342 0.0071493 0.0 
1.05968 0.0192507 0.0 
0.00645419 -0.00450192 0.0 
0.0358674 -0.00908611 0.0 
0.0244486 0.00483457 0.0 
0.200693 0.00902461 0.0 
1.12413 -0.0330933 0.0 
0.0972127 0.00821153 0.0 
0.146247 0.00902349 0.0 
0.0765788 0.00684298 0.0 
0.00102394 8.45171e-05 0.0 
0.126981 0.0062251 0.0 
0.0417101 0.00502179 0.0 
0.537771 0.00779636 0.0 
0.188151 0.0101999 0.0 
0.00707983 0.00211019 0.0 
0.330097 0.00502317 0.0 
0.0308514 0.00441373 0.0 
0.0900142 0.00492141 0.0 
0.151534 0.0076261 0.0 
0.0334693 0.00606545 0.0 
0.0247274 0.00531239 0.0 
0.0198047 0.00372566 0.0 
0.0175813 0.00409887 0.0 
0.0860709 0.00949931 0.0 
0.537731 0.0302426 0.0 
0.835383 0.0155248 0.0 
0.0725257 0.0103042 0.0 
-0.00475408 -0.00205846 0.0 
0.31434 -0.00699384 0.0 
1.09495 -0.00936431 0.0 
-0.0133999 0.00158042 0.0 
0.0247565 0.00661968 0.0 
0.43706 0.0225203 0.0 
0.00796881 -0.00108932 0.0 
-0.0216685 0.000828393 0.0 
0.269544 -0.00121304 0.0 
0.295998 -0.0070106 0.0 
1.01166 0.024295 0.0 
0.0397402 0.00294592 0.0 
0.368905 0.01948 0.0 
0.548088 0.0247676 0.0 
0.645734 0.0205246 0.0 
0.945121 0.0402386 0.0 
-0.00189294 0.000975478 0.0 
0.508634 0.0252196 0.0 
0.499219 0.0301558 0.0 
0.698061 0.0189286 0.0 
0.158936 0.00703689 0.0 
-0.039758 -0.00479065 0.0 
0.0204489 -0.00732911 0.0 
0.396597 0.0188859 0.0 
0.303175 -0.000785409 0.0 
1.06982 0.00658472 0.0 
0.715557 0.0243024 0.0 
0.0486586 0.00863681 0.0 
0.704353 0.0295489 0.0 
1.04962 0.0218102 0.0 
-0.0235943 -0.00116604 0.0 
0.616159 0.0324054 0.0 
0.557817 0.0317581 0.0 
0.560253 0.018411 0.0 
0.0882887 0.00155726 0.0 
1.01743 0.0187937 0.0 
1.12405 -0.0461602 0.0 
0.289856 0.0092841 0.0 
1.13042 -0.0467449 0.0 
0.0822623 0.000395651 0.0 
0.0427538 -0.00223892 0.0 
1.11344 -0.0221631 0.0 
0.000820297 -0.000805968 0.0 
0.318557 -0.00337843 0.0 
1.04793 -0.0918969 0.0 
0.289202 0.0106327 0.0 
0.0170156 -0.00411706 0.0 
1.04153 0.019678 0.0 
0.0144902 -0.00332094 0.0 
0.0116274 -0.0042127 0.0 
1.10904 -0.0199497 0.0 
0.934765 0.0359145 0.0 
0.701305 0.0248159 0.0 
0.0665824 -0.00111246 0.0 
0.000885467 0.00421067 0.0 
1.10981 -0.0228614 0.0 
1.12234 -0.0368367 0.0 
-0.0047303 0.00199203 0.0 
0.876842 0.0195706 0.0 
1.10063 -0.0200946 0.0 
0.598031 0.0150972 0.0 
0.351165 -0.00378586 0.0 
0.744486 0.0230143 0.0 
0.243152 0.0165942 0.0 
0.363025 0.00158164 0.0 
0.259792 -0.00828102 0.0 
0.536777 0.0294682 0.0 
0.321533 0.00344312 0.0 
0.0298647 -0.00324941 0.0 
1.11745 -0.0299387 0.0 
1.09223 -0.0188274 0.0 
0.00851155 0.0033452 0.0 
0.0419195 -0.00244165 0.0 
1.07273 -0.081122 0.0 
0.284574 0.00338344 0.0 
0.0613136 -0.0010286 0.0 
0.308467 0.0021567 0.0 
1.12436 -0.0359649 0.0 
0.751626 0.0273278 0.0 
0.298649 -0.0124285 0.0 
-0.0171257 0.00118086 0.0 
1.00291 0.0217825 0.0 
1.11696 -0.0246202 0.0 
1.05879 0.0151496 0.0 
0.327447 -0.00246938 0.0 
-0.00925394 -0.00507962 0.0 
0.00816637 -0.00338615 0.0 
1.13173 -0.0455811 0.0 
1.08799 -0.0131031 0.0 
0.852975 0.0406895 0.0 
1.04355 -0.00412282 0.0 
1.10168 -0.0143703 0.0 
0.803114 0.0283898 0.0 
0.770012 0.0183456 0.0 
0.749563 0.0392935 0.0 
0.886773 0.0281826 0.0 
-0.0140592 -0.00514353 0.0 
0.549334 0.0130252 0.0 
-0.029161 -0.00640957 0.0 
1.11155 -0.0280983 0.0 
0.43852 0.00898098 0.0 
1.06578 0.0151568 0.0 
1.04381 0.0257228 0.0 
0.742119 0.0250154 0.0 
1.12245 -0.0331499 0.0 
0.885463 0.0238114 0.0 
1.05572 0.018211 0.0 
0.0461689 -0.00924216 0.0 
0.329071 -0.00444901 0.0 
0.33872 0.0039593 0.0 
-0.0315498 -0.00392371 0.0 
-0.0129491 0.000155557 0.0 
1.11758 -0.0263461 0.0 
-0.0215744 -0.00564643 0.0 
0.482474 0.00756602 0.0 
1.06177 0.011358 0.0 
-0.000588904 0.00356295 0.0 
0.278731 -0.00863467 0.0 
0.849439 0.0209381 0.0 
0.483652 0.0191373 0.0 
0.317866 -0.000687873 0.0 
-0.00363029 0.00320514 0.0 
0.594203 0.0115025 0.0 
0.2783 0.0181466 0.0 
0.276202 -0.0184648 0.0 
1.05289 0.0118357 0.0 
0.735897 0.0180706 0.0 
0.575154 0.0169387 0.0 
1.13275 -0.0448676 0.0 
0.520609 0.00837838 0.0 
1.11015 -0.0181653 0.0 
-0.0350895 -0.00589586 0.0 
0.934645 0.0150968 0.0 
0.88394 0.0167598 0.0 
1.0994 -0.0152599 0.0 
1.04788 0.0145467 0.0 
0.000150537 0.00435236 0.0 
-0.00950847 -0.00503845 0.0 
1.03755 0.0243282 0.0 
1.05379 0.0148121 0.0 
0.677381 0.0264512 0.0 
0.700557 0.0221337 0.0 
1.10066 -0.00694119 0.0 
0.376839 0.00118583 0.0 
1.12789 -0.0384995 0.0 
0.34522 -0.000556733 0.0 
1.07991 -0.000687052 0.0 
0.270446 0.00384475 0.0 
1.11183 -0.0302659 0.0 
1.09302 -0.0013645 0.0 
1.0803 0.00224905 0.0 
-0.00289369 -0.00132355 0.0 
0.397796 0.00679263 0.0 
0.006854 0.00241838 0.0 
1.07515 0.00712629 0.0 
0.558144 0.0314112 0.0 
-0.0296236 -0.0060208 0.0 
1.03016 0.000465906 0.0 
0.292748 0.022441 0.0 
1.0703 0.0114232 0.0 
0.200297 0.0155895 0.0 
-0.0262765 -0.00024122 0.0 
0.00950144 0.00289687 0.0 
1.11838 -0.0700184 0.0 
1.08523 0.00329026 0.0 
0.406067 0.0134459 0.0 
0.235014 -0.00151158 0.0 
0.779981 0.0321512 0.0 
1.08022 0.00760263 0.0 
1.10595 -0.0122798 0.0 
1.08913 -0.00118035 0.0 
1.09702 -0.00702992 0.0 
-0.000799071 -0.00273483 0.0 
0.337596 0.00234129 0.0 
0.00730453 0.00105885 0.0 
0.652118 0.0363301 0.0 
-0.00593659 -0.00342801 0.0 
0.995407 0.0380058 0.0 
-0.0197697 -0.00130293 0.0 
0.657799 0.0354954 0.0 
0.14631 -0.00399775 0.0 
0.295786 -0.00541703 0.0 
0.506109 0.00723249 0.0 
1.11084 -0.0175107 0.0 
1.11576 -0.0236323 0.0 
0.699731 0.0221707 0.0 
0.00218148 -0.00121283 0.0 
1.105 -0.0123476 0.0 
0.307659 -0.00359486 0.0 
1.08816 -0.00332085 0.0 
-0.0264868 0.00147603 0.0 
1.07577 0.0114829 0.0 
0.295565 -0.00386988 0.0 
0.777094 0.0231308 0.0 
0.835242 0.0293474 0.0 
1.06562 -0.0107973 0.0 
0.246454 -0.0209797 0.0 
0.00112431 0.00418902 0.0 
0.197145 0.0104326 0.0 
0.0526756 -0.000567613 0.0 
0.785156 0.0202064 0.0 
0.95141 0.0373678 0.0 
0.807934 0.0244484 0.0 
0.538631 0.0194104 0.0 
0.791202 0.0144149 0.0 
0.781187 0.0222927 0.0 
0.199647 -0.011287 0.0 
0.22818 -0.0131596 0.0 
0.802506 0.0203369 0.0 
0.868375 0.0138738 0.0 
0.294569 0.020115 0.0 
0.579827 0.0203893 0.0 
0.134259 -0.00657969 0.0 
0.800869 0.0232337 0.0 
0.626275 0.0334469 0.0 
0.239132 -0.00312561 0.0 
0.162088 -0.0100869 0.0 
0.840748 0.0345668 0.0 
0.216711 -0.0111329 0.0 
-0.0114997 0.00261121 0.0 
0.805954 0.0403357 0.0 
0.59312 0.0314329 0.0 
1.00415 0.0180135 0.0 
0.895292 0.0135715 0.0 
0.930122 0.011108 0.0 
1.11609 -0.050482 0.0 
0.296579 0.0175681 0.0 
0.901438 0.0195592 0.0 
-0.00223846 -0.000246045 0.0 
0.992543 0.0148228 0.0 
0.0618528 -0.00109853 0.0 
-0.000783712 0.00418493 0.0 
0.204365 0.0182406 0.0 
0.210012 -0.00928717 0.0 
-0.0265163 -0.00495997 0.0 
0.323382 0.00224902 0.0 
0.239112 -0.0124571 0.0 
0.975666 0.00685635 0.0 
-0.0126206 -0.00274107 0.0 
0.95463 0.0400896 0.0 
0.36109 0.0050218 0.0 
1.12167 -0.0588871 0.0 
0.14003 -0.0110787 0.0 
1.0326 0.0171819 0.0 
-0.0220066 -0.00324544 0.0 
0.286778 0.0130761 0.0 
1.07082 0.00336929 0.0 
-0.00949443 0.00225361 0.0 
0.232973 -0.0107706 0.0 
1.06175 -0.0013523 0.0 
6.03268e-05 -0.00466429 0.0 
0.106357 -0.013192 0.0 
0.00342537 -0.00337107 0.0 
0.0475338 -0.00551223 0.0 
0.0875152 -0.00954645 0.0 
0.372159 -0.000332327 0.0 
0.85566 0.0169474 0.0 
0.159011 0.00505631 0.0 
0.323035 0.0196409 0.0 
0.0280048 -0.00616971 0.0 
0.161827 -0.0165543 0.0 
0.887527 0.0340992 0.0 
-0.00140742 0.00414228 0.0 
0.38055 0.0167149 0.0 
0.0180868 -0.0055555 0.0 
0.133648 -0.0119499 0.0 
0.220314 -0.0179696 0.0 
-0.00790745 0.00167838 0.0 
0.457137 0.0126177 0.0 
0.579508 0.0267772 0.0 
0.438835 0.0254077 0.0 
0.856588 0.0324461 0.0 
0.00338963 0.00463316 0.0 
-0.00651479 0.0033134 0.0 
0.613844 0.0169576 0.0 
0.692055 0.0121247 0.0 
0.311782 0.0138064 0.0 
-0.00028108 -0.00451357 0.0 
0.157398 -0.00774527 0.0 
0.230885 -0.0209594 0.0 
0.852344 0.0181699 0.0 
0.0109953 -0.00442911 0.0 
0.241244 -0.00827116 0.0 
0.111848 0.00210728 0.0 
-0.00713008 -0.00129228 0.0 
0.313913 0.00665947 0.0 
0.100914 -0.00818406 0.0 
0.208637 -0.0152553 0.0 
1.1048 -0.0384492 0.0 
0.366719 0.0217322 0.0 
0.355123 -0.00116839 0.0 
0.0717462 -0.00863468 0.0 
0.872871 0.0301624 0.0 
0.521056 0.0252599 0.0 
0.284563 -0.00410241 0.0 
1.11565 -0.0405862 0.0 
0.304671 0.0126952 0.0 
1.08361 -0.0140966 0.0 
0.722019 0.0363145 0.0 
-0.0026398 0.000333027 0.0 
0.768436 0.0381552 0.0 
0.452904 0.0103062 0.0 
0.167497 -0.00273039 0.0 
0.125517 -0.0138178 0.0 
-0.0108104 0.00323129 0.0 
-0.0286776 0.000766967 0.0 
0.298053 0.00675465 0.0 
0.0256446 -0.00460061 0.0 
0.348877 -0.00208035 0.0 
0.995216 0.00815461 0.0 
0.721865 0.0389795 0.0 
0.413904 0.00981084 0.0 
0.396355 0.00397288 0.0 
0.290774 0.0179139 0.0 
0.00131737 -0.0031416 0.0 
0.272156 -0.0114842 0.0 
0.499686 0.0273295 0.0 
0.387226 0.0105281 0.0 
0.723761 0.0153053 0.0 
0.603958 0.0222786 0.0 
0.808705 0.0188108 0.0 
0.181771 -0.0110744 0.0 
0.733471 0.0212786 0.0 
0.959076 0.0397307 0.0 
0.901831 0.037086 0.0 
0.0106313 -0.00338734 0.0 
0.349116 0.0168008 0.0 
0.00326386 -0.00401912 0.0 
0.264412 0.0162663 0.0 
-0.00319453 0.000128128 0.0 
0.279716 -0.00526188 0.0 
0.862628 0.0258029 0.0 
1.08324 0.00835896 0.0 
0.337311 0.0167687 0.0 
0.413488 0.0197159 0.0 
0.224756 0.0143686 0.0 
0.0133289 -0.00142167 0.0 
0.230383 0.00939499 0.0 
0.184186 0.0129565 0.0 
0.8796 0.0408282 0.0 
0.28363 0.0145109 0.0 
0.915522 0.0358685 0.0 
0.0921765 -0.0125553 0.0 
0.14482 -0.0139414 0.0 
0.331816 -0.000774866 0.0 
0.214752 -0.0189989 0.0 
0.944662 0.0400146 0.0 
-0.016037 -0.00151628 0.0 
1.00858 0.0152181 0.0 
0.643006 0.0234208 0.0 