<VTKFile type="UnstructuredGrid" version="0.1" byte_order="LittleEndian">
  <UnstructuredGrid>
    <Piece NumberOfPoints="14090" NumberOfCells="27450">
      <Points>
        <DataArray type = "Float64" NumberOfComponents="3" format="ascii">
1.03666 0.978807 0.0 
1.05194 0.981985 0.0 
1.03226 0.98299 0.0 
1.06013 0.969067 0.0 
1.04309 0.973855 0.0 
1.03466 0.983164 0.0 
1.05615 0.979442 0.0 
1.04639 0.973096 0.0 
1.04822 0.980493 0.0 
1.02692 0.981153 0.0 
1.04797 0.9832 0.0 
1.04141 0.974923 0.0 
1.10973 0.955758 0.0 
1.03908 0.979875 0.0 
1.1281 0.937957 0.0 
1.03032 0.978231 0.0 
1.04482 0.985572 0.0 
1.03233 0.981742 0.0 
1.05421 0.977115 0.0 
1.06115 0.966793 0.0 
1.03461 0.987822 0.0 
1.04911 0.978084 0.0 
1.04428 0.984088 0.0 
1.05046 0.97898 0.0 
1.05953 0.967592 0.0 
1.06208 0.967085 0.0 
1.06035 0.966156 0.0 
1.06186 0.968001 0.0 
1.05902 0.966402 0.0 
1.05922 0.965493 0.0 
1.03865 0.977607 0.0 
1.06083 0.967601 0.0 
1.12027 0.951439 0.0 
1.04231 0.986747 0.0 
1.04238 0.98046 0.0 
1.64943 0.938259 0.0 
1.06089 0.969591 0.0 
1.03564 0.988413 0.0 
1.25269 0.929791 0.0 
1.04988 0.973426 0.0 
1.04162 0.983439 0.0 
1.05832 0.977208 0.0 
1.06073 0.965278 0.0 
1.04426 0.936031 0.0 
1.05344 0.972651 0.0 
1.0414 0.987158 0.0 
1.05425 0.968049 0.0 
1.05251 0.972104 0.0 
1.05027 0.98282 0.0 
1.0583 0.975883 0.0 
1.04991 0.9684 0.0 
1.0411 0.983936 0.0 
1.06145 0.972475 0.0 
1.03071 0.951213 0.0 
1.03535 0.951798 0.0 
1.0385 0.987686 0.0 
2.80482 0.735896 0.0 
1.06114 0.973114 0.0 
1.05787 0.965972 0.0 
1.05559 0.96742 0.0 
1.0243 0.988168 0.0 
1.04238 0.981831 0.0 
1.05706 0.967884 0.0 
1.05364 0.964561 0.0 
1.03491 0.978687 0.0 
1.25529 0.951914 0.0 
1.04381 0.974507 0.0 
2.25058 0.742958 0.0 
1.05711 0.968729 0.0 
1.0596 0.957984 0.0 
1.02926 0.990744 0.0 
1.05415 0.966844 0.0 
1.05825 0.969713 0.0 
1.11675 0.953529 0.0 
1.0587 0.970352 0.0 
1.02488 0.99144 0.0 
1.0399 0.979383 0.0 
1.04224 0.959417 0.0 
1.03628 0.988395 0.0 
1.05075 0.981755 0.0 
1.03233 0.988889 0.0 
1.04397 0.980713 0.0 
1.05588 0.966217 0.0 
1.05321 0.948342 0.0 
1.03875 0.958439 0.0 
1.02999 0.99148 0.0 
1.04971 0.983102 0.0 
1.06085 0.977499 0.0 
1.0357 0.979174 0.0 
1.0607 0.972367 0.0 
1.13285 0.928518 0.0 
1.0489 0.97508 0.0 
1.05528 0.976922 0.0 
1.03568 0.988873 0.0 
1.03924 0.978959 0.0 
1.05655 0.967104 0.0 
1.032 0.990183 0.0 
1.13026 0.950659 0.0 
1.05655 0.969382 0.0 
1.06261 0.965764 0.0 
1.06034 0.971104 0.0 
1.03749 0.988819 0.0 
1.02947 0.991636 0.0 
1.16455 0.959204 0.0 
1.03468 0.982236 0.0 
1.06284 0.975732 0.0 
1.02313 0.991315 0.0 
1.03285 0.94131 0.0 
1.03147 0.988477 0.0 
1.04556 0.95453 0.0 
1.02475 0.990143 0.0 
1.0443 0.983428 0.0 
1.05548 0.977651 0.0 
1.02247 0.989144 0.0 
1.02404 0.991524 0.0 
1.0307 0.990652 0.0 
1.03041 0.98842 0.0 
1.02289 0.990597 0.0 
1.03015 0.990659 0.0 
1.05767 0.970335 0.0 
1.05147 0.977028 0.0 
1.05742 0.955324 0.0 
1.05338 0.977644 0.0 
1.04316 0.972128 0.0 
1.04746 0.968837 0.0 
1.02433 0.985858 0.0 
1.05443 0.975738 0.0 
1.3293 0.940603 0.0 
1.05938 0.964294 0.0 
1.05439 0.962304 0.0 
1.06232 0.965064 0.0 
1.06368 0.964459 0.0 
1.03684 0.982919 0.0 
1.06102 0.964326 0.0 
1.04974 0.977677 0.0 
1.04954 0.971005 0.0 
1.04784 0.981242 0.0 
1.06013 0.962987 0.0 
1.02839 0.990305 0.0 
1.02265 0.989923 0.0 
1.05214 0.971291 0.0 
1.06173 0.961602 0.0 
1.04424 0.962025 0.0 
1.03888 0.98825 0.0 
1.05209 0.974479 0.0 
1.03971 0.981387 0.0 
1.04752 0.961841 0.0 
1.04348 0.97288 0.0 
1.02898 0.991324 0.0 
1.05882 0.961089 0.0 
1.06366 0.962922 0.0 
1.05741 0.962808 0.0 
1.05604 0.97654 0.0 
1.05097 0.962622 0.0 
1.0386 0.987112 0.0 
1.05571 0.960128 0.0 
1.66098 0.935197 0.0 
1.0544 0.957091 0.0 
1.03783 0.977129 0.0 
1.29333 0.950108 0.0 
1.06227 0.963716 0.0 
1.05879 0.978683 0.0 
1.03659 0.979625 0.0 
1.02337 0.989426 0.0 
1.05316 0.978467 0.0 
1.029 0.987277 0.0 
1.02899 0.981232 0.0 
1.03043 0.991346 0.0 
1.05774 0.979663 0.0 
1.0296 0.988886 0.0 
1.03257 0.99065 0.0 
1.02763 0.987915 0.0 
1.05173 0.954793 0.0 
1.03417 0.980318 0.0 
1.03265 0.984204 0.0 
1.04139 0.980791 0.0 
1.02576 0.990545 0.0 
1.059 0.968861 0.0 
1.27855 0.948292 0.0 
1.02144 0.989175 0.0 
1.19284 0.943621 0.0 
1.02784 0.992099 0.0 
1.04296 0.976863 0.0 
1.03004 0.983388 0.0 
1.02511 0.990839 0.0 
1.02831 0.991969 0.0 
1.04318 0.983741 0.0 
1.02838 0.988725 0.0 
1.03942 0.985703 0.0 
1.03603 0.970606 0.0 
1.24993 0.834272 0.0 
1.02689 0.990814 0.0 
1.02951 0.987908 0.0 
1.04727 0.984365 0.0 
1.2124 0.94524 0.0 
1.02321 0.986149 0.0 
1.24662 0.953695 0.0 
1.04169 0.979925 0.0 
1.02678 0.990033 0.0 
1.05691 0.973537 0.0 
1.04286 0.984302 0.0 
1.03741 0.987908 0.0 
1.02404 0.987474 0.0 
1.02586 0.989749 0.0 
1.0268 0.989015 0.0 
1.02301 0.987875 0.0 
1.02715 0.991522 0.0 
1.02381 0.990734 0.0 
1.03679 0.989097 0.0 
1.0298 0.989837 0.0 
1.04055 0.961627 0.0 
1.02298 0.988487 0.0 
1.0264 0.991147 0.0 
1.02157 0.988363 0.0 
1.04094 0.987361 0.0 
1.05583 0.964078 0.0 
1.02774 0.989557 0.0 
1.02423 0.989445 0.0 
1.05469 0.980781 0.0 
1.02601 0.988115 0.0 
1.02844 0.99107 0.0 
1.02323 0.986696 0.0 
1.0741 0.865876 0.0 
1.16686 0.964346 0.0 
1.0378 0.98073 0.0 
1.03742 0.978031 0.0 
1.03115 0.985431 0.0 
1.05703 0.979904 0.0 
1.05806 0.976498 0.0 
1.23418 0.952173 0.0 
1.04927 0.97273 0.0 
1.02517 0.987392 0.0 
1.04306 0.98307 0.0 
1.0331 0.987537 0.0 
1.03237 0.980051 0.0 
1.03664 0.986604 0.0 
1.05703 0.971523 0.0 
1.04495 0.978397 0.0 
1.02444 0.99078 0.0 
1.12867 0.954999 0.0 
1.04777 0.979738 0.0 
1.05919 0.969592 0.0 
1.05439 0.978915 0.0 
1.02157 0.985888 0.0 
1.03784 0.985852 0.0 
1.02362 0.990045 0.0 
1.0541 0.978183 0.0 
1.02432 0.986669 0.0 
1.03047 0.981096 0.0 
1.02731 0.99224 0.0 
1.02824 0.985065 0.0 
1.03233 0.989542 0.0 
1.20295 0.956233 0.0 
1.03412 0.988446 0.0 
1.10524 0.847639 0.0 
1.04193 0.984139 0.0 
1.02775 0.991327 0.0 
1.02569 0.991353 0.0 
1.0321 0.99081 0.0 
1.03596 0.981648 0.0 
1.02767 0.990518 0.0 
1.05688 0.978598 0.0 
1.02886 0.989646 0.0 
1.02511 0.983093 0.0 
1.03715 0.975816 0.0 
1.04861 0.956502 0.0 
1.0466 0.963677 0.0 
1.03279 0.989952 0.0 
1.03061 0.989107 0.0 
1.03829 0.98201 0.0 
1.05639 0.97388 0.0 
1.04428 0.973689 0.0 
1.03088 0.987721 0.0 
1.17067 0.962858 0.0 
1.03018 0.984154 0.0 
1.0431 0.978865 0.0 
1.05048 0.974086 0.0 
1.02875 0.991845 0.0 
1.04461 0.979212 0.0 
1.02806 0.986902 0.0 
1.04056 0.97775 0.0 
1.02315 0.987168 0.0 
1.04228 0.964071 0.0 
1.03193 0.980927 0.0 
1.03115 0.99112 0.0 
1.03121 0.990382 0.0 
1.03023 0.987091 0.0 
1.03158 0.990979 0.0 
1.03784 0.982804 0.0 
1.02576 0.986698 0.0 
1.03667 0.981626 0.0 
0.747219 0.552161 0.0 
1.04533 0.982662 0.0 
1.25545 0.955083 0.0 
1.04791 0.972881 0.0 
1.05996 0.966928 0.0 
1.03071 0.989893 0.0 
1.03985 0.983289 0.0 
1.03152 0.989496 0.0 
1.03967 0.984895 0.0 
1.04674 0.984025 0.0 
1.02662 0.987221 0.0 
1.04686 0.977832 0.0 
1.16878 0.959741 0.0 
1.0503 0.977228 0.0 
1.03522 0.985416 0.0 
1.0486 0.975958 0.0 
1.06215 0.955694 0.0 
1.03156 0.986885 0.0 
1.03543 0.982331 0.0 
1.04129 0.978429 0.0 
1.3601 0.903315 0.0 
1.03396 0.987671 0.0 
1.05301 0.974374 0.0 
1.03618 0.985212 0.0 
1.03208 0.987545 0.0 
1.02603 0.985058 0.0 
1.03299 0.989237 0.0 
1.04852 0.979862 0.0 
1.0465 0.979115 0.0 
1.05656 0.972275 0.0 
1.03245 0.988159 0.0 
1.03785 0.987194 0.0 
1.04909 0.980362 0.0 
1.04548 0.981996 0.0 
1.15731 0.961674 0.0 
1.02519 0.98901 0.0 
1.05818 0.978051 0.0 
1.02659 0.991775 0.0 
1.03589 0.984529 0.0 
1.02368 0.988821 0.0 
1.0524 0.981772 0.0 
1.05341 0.976933 0.0 
1.03537 0.980091 0.0 
1.05608 0.968756 0.0 
1.29801 0.741151 0.0 
1.03404 0.984088 0.0 
1.02791 0.985714 0.0 
1.05681 0.977255 0.0 
1.05199 0.980257 0.0 
1.04224 0.952284 0.0 
1.03745 0.986587 0.0 
1.05882 0.947508 0.0 
1.02585 0.940063 0.0 
1.03002 0.956671 0.0 
1.05462 0.974161 0.0 
1.05237 0.979732 0.0 
1.02963 0.979191 0.0 
1.04102 0.984687 0.0 
1.05446 0.972561 0.0 
1.0337 0.983641 0.0 
1.0451 0.983357 0.0 
1.82475 0.922073 0.0 
1.05372 0.979049 0.0 
1.02295 0.984846 0.0 
1.03635 0.985927 0.0 
1.05746 0.978357 0.0 
1.04485 0.984843 0.0 
1.04867 0.983638 0.0 
1.07456 0.944276 0.0 
1.03493 0.989812 0.0 
1.02904 0.979923 0.0 
1.05455 0.97506 0.0 
1.03152 0.935004 0.0 
1.04 0.987772 0.0 
1.04942 0.98178 0.0 
1.18261 0.955639 0.0 
1.04225 0.984811 0.0 
1.03608 0.97639 0.0 
1.0608 0.968354 0.0 
1.0505 0.972623 0.0 
1.02906 0.985441 0.0 
1.03457 0.979498 0.0 
1.03317 0.977097 0.0 
1.03347 0.979774 0.0 
1.03989 0.98202 0.0 
1.03549 0.98693 0.0 
1.03369 0.986199 0.0 
1.0242 0.947593 0.0 
1.12224 0.957218 0.0 
1.05115 0.967125 0.0 
1.02535 0.984415 0.0 
1.04767 0.965518 0.0 
1.04448 0.975147 0.0 
1.13414 0.956635 0.0 
1.03107 0.984632 0.0 
1.04569 0.981386 0.0 
1.03734 0.942493 0.0 
1.02872 0.984238 0.0 
1.02858 0.986127 0.0 
1.05017 0.981971 0.0 
1.03666 0.984145 0.0 
1.04996 0.940951 0.0 
1.23131 0.926682 0.0 
1.05901 0.97259 0.0 
1.03978 0.977136 0.0 
1.11606 0.955321 0.0 
1.04559 0.980088 0.0 
1.02812 0.982979 0.0 
1.05239 0.97865 0.0 
1.17259 0.964019 0.0 
1.02687 0.985549 0.0 
1.03391 0.982367 0.0 
1.0349 0.986263 0.0 
1.04867 0.973595 0.0 
1.17296 0.960461 0.0 
1.13172 0.959876 0.0 
1.03746 0.983754 0.0 
1.04111 0.985408 0.0 
1.06156 0.973759 0.0 
1.04197 0.985565 0.0 
1.38985 0.886483 0.0 
1.04247 0.983576 0.0 
1.0496 0.976966 0.0 
1.05067 0.981021 0.0 
1.0407 0.981594 0.0 
1.04276 0.986539 0.0 
1.05941 0.97914 0.0 
1.18007 0.892571 0.0 
1.05182 0.977589 0.0 
1.05086 0.976775 0.0 
1.12581 0.951807 0.0 
1.06254 0.958886 0.0 
1.28202 0.938681 0.0 
1.05128 0.98069 0.0 
1.05269 0.975581 0.0 
1.04968 0.979878 0.0 
1.03539 0.989637 0.0 
1.04944 0.981044 0.0 
1.12534 0.959589 0.0 
1.01416 0.73013 0.0 
1.05017 0.976515 0.0 
1.03522 0.987694 0.0 
1.05766 0.966894 0.0 
1.05481 0.97766 0.0 
1.3947 0.905344 0.0 
1.04338 0.975298 0.0 
1.05103 0.973265 0.0 
1.04375 0.978087 0.0 
1.03916 0.986629 0.0 
1.05985 0.969966 0.0 
1.0395 0.978048 0.0 
1.03654 0.977529 0.0 
1.03522 0.983871 0.0 
1.05423 0.98097 0.0 
1.03439 0.956739 0.0 
1.01935 0.936806 0.0 
[...]
<PointData>
  <DataArray type = "Float64" Name="Vitesse" NumberOfComponents="3" format="ascii">
0.848227 -0.260309 0.0 
0 0 0.0 
0.708728 -0.202673 0.0 
1.09395 -0.264639 0.0 
0.950688 -0.293561 0.0 
0.652138 -0.198396 0.0 
0.224837 -0.0826059 0.0 
0.972121 -0.302404 0.0 
0.548458 -0.231143 0.0 
0.852258 -0.222963 0.0 
0.159219 -0.0793118 0.0 
0.930357 -0.288678 0.0 
1.1278 -0.0423376 0.0 
0.779419 -0.254654 0.0 
1.10042 -0.0304778 0.0 
0.888272 -0.243352 0.0 
0 0 0.0 
0.776417 -0.222424 0.0 
0.739382 -0.264549 0.0 
1.11573 -0.249056 0.0 
0.236751 -0.0793224 0.0 
0.753466 -0.285244 0.0 
0.272311 -0.119137 0.0 
0.643962 -0.258736 0.0 
1.10385 -0.260844 0.0 
1.11915 -0.245686 0.0 
1.11303 -0.249303 0.0 
1.1118 -0.250552 0.0 
1.10473 -0.25606 0.0 
1.10663 -0.249688 0.0 
0.873584 -0.273381 0.0 
1.11049 -0.254709 0.0 
1.11806 -0.0320166 0.0 
0 0 0.0 
0.693596 -0.248722 0.0 
1.003 0.00262182 0.0 
1.08827 -0.261537 0.0 
0.135235 -0.0488026 0.0 
1.04733 0.0238271 0.0 
0.974271 -0.309344 0.0 
0.460202 -0.177365 0.0 
0.560337 -0.176176 0.0 
1.11573 -0.242677 0.0 
1.02266 -0.144047 0.0 
1.00239 -0.304527 0.0 
0 0 0.0 
1.06851 -0.279265 0.0 
1.01298 -0.304667 0.0 
0 0 0.0 
0.75987 -0.232839 0.0 
1.03644 -0.282766 0.0 
0.42684 -0.164205 0.0 
0.990051 -0.249904 0.0 
0.977738 -0.176202 0.0 
0.990989 -0.18392 0.0 
0.0966711 -0.0386389 0.0 
1.01114 -7.31043e-05 0.0 
0.955008 -0.247244 0.0 
1.09796 -0.257127 0.0 
1.0801 -0.272603 0.0 
0.468594 -0.10006 0.0 
0.587612 -0.219777 0.0 
1.08803 -0.271961 0.0 
1.06901 -0.255327 0.0 
0.862964 -0.25609 0.0 
1.03186 0.0341319 0.0 
0.940238 -0.297261 0.0 
1.01114 -6.96617e-05 0.0 
1.0829 -0.276813 0.0 
1.09435 -0.206056 0.0 
0.0942561 -0.026553 0.0 
1.07122 -0.271069 0.0 
1.07801 -0.277047 0.0 
1.12134 -0.0345428 0.0 
1.06891 -0.276855 0.0 
0.125509 -0.0263102 0.0 
0.793902 -0.261861 0.0 
1.00756 -0.220572 0.0 
0.111682 -0.0419213 0.0 
0.193644 -0.093087 0.0 
0.195964 -0.060713 0.0 
0.643448 -0.243191 0.0 
1.08443 -0.263913 0.0 
1.05334 -0.175807 0.0 
0.994206 -0.211575 0.0 
0 0 0.0 
0 0 0.0 
0.342361 -0.092922 0.0 
0.843315 -0.25503 0.0 
1.00196 -0.25914 0.0 
1.09017 -0.0293443 0.0 
0.921564 -0.308816 0.0 
0.730575 -0.253904 0.0 
0.0796419 -0.0298081 0.0 
0.820705 -0.265138 0.0 
1.08733 -0.268185 0.0 
0.0708405 -0.0229667 0.0 
1.10997 -0.0218346 0.0 
1.07387 -0.282369 0.0 
1.12548 -0.236651 0.0 
1.05196 -0.266589 0.0 
0 0 0.0 
0 0 0.0 
1.027 0.009647 0.0 
0.712916 -0.215558 0.0 
0.602323 -0.146326 0.0 
0.170367 -0.0310852 0.0 
0.993474 -0.152775 0.0 
0.261891 -0.0763788 0.0 
1.02556 -0.202015 0.0 
0.255623 -0.0526229 0.0 
0.359116 -0.153506 0.0 
0.62827 -0.223276 0.0 
0.413327 -0.0798403 0.0 
0.133266 -0.0261742 0.0 
0.0628258 -0.0192301 0.0 
0.294797 -0.081272 0.0 
0.24813 -0.0455231 0.0 
0.0782961 -0.0230215 0.0 
1.06591 -0.282176 0.0 
0.798604 -0.291555 0.0 
1.07842 -0.19814 0.0 
0.704759 -0.261804 0.0 
0.971809 -0.287943 0.0 
1.01791 -0.282027 0.0 
0.674044 -0.15694 0.0 
0.854191 -0.287831 0.0 
1.02096 0.0268208 0.0 
1.10665 -0.241727 0.0 
1.07277 -0.239921 0.0 
1.12443 -0.234579 0.0 
1.13086 -0.225006 0.0 
0.625384 -0.202125 0.0 
1.11645 -0.236002 0.0 
0.774663 -0.289617 0.0 
1.01579 -0.299219 0.0 
0.473023 -0.205859 0.0 
1.10881 -0.231461 0.0 
0.159081 -0.0411662 0.0 
0.325229 -0.0605962 0.0 
1.02595 -0.30148 0.0 
1.11441 -0.21846 0.0 
1.01383 -0.235742 0.0 
0 0 0.0 
0.939503 -0.307816 0.0 
0.678083 -0.231407 0.0 
1.03154 -0.238303 0.0 
0.965073 -0.292191 0.0 
0.0443334 -0.0127605 0.0 
1.09743 -0.224299 0.0 
1.12773 -0.217553 0.0 
1.0921 -0.237912 0.0 
0.750565 -0.252858 0.0 
1.05147 -0.243905 0.0 
0.164315 -0.0644914 0.0 
1.07802 -0.225174 0.0 
1.0056 0.00237186 0.0 
1.06699 -0.210796 0.0 
0.889241 -0.272409 0.0 
1.02015 0.0333176 0.0 
1.12238 -0.227607 0.0 
0.191318 -0.0589312 0.0 
0.819053 -0.25323 0.0 
0.361341 -0.070955 0.0 
0.612893 -0.2369 0.0 
0.439359 -0.112437 0.0 
0.833866 -0.224981 0.0 
0 0 0.0 
0 0 0.0 
0.269284 -0.0719623 0.0 
0 0 0.0 
0.411951 -0.0994859 0.0 
1.05226 -0.202378 0.0 
0.815722 -0.24152 0.0 
0.617355 -0.178494 0.0 
0.688454 -0.242458 0.0 
0.194276 -0.0426727 0.0 
1.09167 -0.269748 0.0 
1.03087 0.033445 0.0 
0.436877 -0.0819289 0.0 
1.07643 0.0130696 0.0 
0 0 0.0 
0.875973 -0.290251 0.0 
0.724282 -0.196769 0.0 
0.178902 -0.0376995 0.0 
0 0 0.0 
0.369717 -0.153333 0.0 
0.314703 -0.0786626 0.0 
0.296654 -0.11406 0.0 
0.951066 -0.253646 0.0 
1.03487 0.00105951 0.0 
0.144046 -0.034435 0.0 
0.366903 -0.0961329 0.0 
0 0 0.0 
1.06714 0.0215027 0.0 
0.677962 -0.154037 0.0 
1.02758 0.0339304 0.0 
0.740191 -0.257116 0.0 
0.222527 -0.0517618 0.0 
0.965808 -0.286606 0.0 
0.317072 -0.132847 0.0 
0.120678 -0.0469277 0.0 
0.543204 -0.118476 0.0 
0.271215 -0.0596162 0.0 
0.323301 -0.0748374 0.0 
0.530779 -0.111222 0.0 
0.0706655 -0.0177993 0.0 
0.215278 -0.0415475 0.0 
0 0 0.0 
0.170253 -0.0472892 0.0 
0.996614 -0.227922 0.0 
0.469577 -0.0952347 0.0 
0.12268 -0.0285132 0.0 
0.520311 -0.103305 0.0 
0 0 0.0 
1.08351 -0.249077 0.0 
0.247871 -0.0604781 0.0 
0.33899 -0.0690049 0.0 
0 0 0.0 
0.431465 -0.0977753 0.0 
0.0832013 -0.0223579 0.0 
0.633569 -0.140661 0.0 
1.03312 -0.0544116 0.0 
0.880379 0.0161901 0.0 
0.750729 -0.241325 0.0 
0.86754 -0.267341 0.0 
0.552761 -0.152908 0.0 
0 0 0.0 
0.686556 -0.215669 0.0 
1.04258 0.0310469 0.0 
0.988462 -0.306956 0.0 
0.522357 -0.117613 0.0 
0.449726 -0.180579 0.0 
0.310612 -0.0956411 0.0 
0.841136 -0.240582 0.0 
0.298287 -0.104985 0.0 
1.03905 -0.288474 0.0 
0.787787 -0.281702 0.0 
0.198098 -0.0399918 0.0 
1.10727 -0.019349 0.0 
0.640204 -0.256612 0.0 
1.08324 -0.271748 0.0 
0.479581 -0.183957 0.0 
0.732553 -0.165675 0.0 
0.337216 -0.121989 0.0 
0.290419 -0.0563709 0.0 
0.61384 -0.230543 0.0 
0.60938 -0.13801 0.0 
0.824346 -0.228093 0.0 
0 0 0.0 
0.647158 -0.165727 0.0 
0.127899 -0.0406919 0.0 
1.03473 0.0240916 0.0 
0.186445 -0.062461 0.0 
1.03807 -0.0376663 0.0 
0.375336 -0.150506 0.0 
0.0751384 -0.0195083 0.0 
0.117642 -0.026175 0.0 
0 0 0.0 
0.726797 -0.225825 0.0 
0.155254 -0.0386442 0.0 
0.369522 -0.126818 0.0 
0.212693 -0.055544 0.0 
0.812513 -0.204003 0.0 
0.914564 -0.271542 0.0 
1.03868 -0.211232 0.0 
1.02423 -0.247699 0.0 
0.0686345 -0.0228024 0.0 
0.222015 -0.062992 0.0 
0.661864 -0.219656 0.0 
0.951578 -0.288787 0.0 
0.95614 -0.297575 0.0 
0.351078 -0.0976965 0.0 
0.930166 0.0163313 0.0 
0.672085 -0.18208 0.0 
0.783207 -0.273455 0.0 
0.95561 -0.310173 0.0 
0 0 0.0 
0.741474 -0.270312 0.0 
0.497145 -0.123344 0.0 
0.858138 -0.278234 0.0 
0.594421 -0.129126 0.0 
1.00003 -0.242881 0.0 
0.815786 -0.23194 0.0 
0 0 0.0 
0.0751661 -0.0232966 0.0 
0.426847 -0.114692 0.0 
0 0 0.0 
0.612816 -0.203721 0.0 
0.571394 -0.133235 0.0 
0.716139 -0.226439 0.0 
0.999899 -0.00587023 0.0 
0.406661 -0.174406 0.0 
1.01302 0.0357326 0.0 
0.980919 -0.305307 0.0 
1.10901 -0.255342 0.0 
0.140043 -0.0410844 0.0 
0.525331 -0.188783 0.0 
0.157426 -0.0477699 0.0 
0.375345 -0.14141 0.0 
0.113515 -0.0553576 0.0 
0.502724 -0.11837 0.0 
0.799659 -0.290164 0.0 
1.0125 0.0122325 0.0 
0.799594 -0.293878 0.0 
0.455372 -0.145863 0.0 
0.885932 -0.305764 0.0 
1.09973 -0.189427 0.0 
0.413239 -0.117113 0.0 
0.693575 -0.214013 0.0 
0.824671 -0.274632 0.0 
1.02015 0.0172219 0.0 
0.27251 -0.0879027 0.0 
0.941846 -0.305386 0.0 
0.449015 -0.148612 0.0 
0.337125 -0.0989451 0.0 
0.694521 -0.170007 0.0 
0.13903 -0.0453639 0.0 
0.607169 -0.248925 0.0 
0.718505 -0.272373 0.0 
1.01712 -0.291723 0.0 
0.266581 -0.0810254 0.0 
0.187844 -0.0715833 0.0 
0.531968 -0.226969 0.0 
0.479323 -0.200327 0.0 
0.981173 0.00923355 0.0 
0.361376 -0.0775916 0.0 
0.397449 -0.127347 0.0 
0.0593174 -0.0146244 0.0 
0.517389 -0.166748 0.0 
0.417434 -0.0850323 0.0 
0 0 0.0 
0.774567 -0.278284 0.0 
0.812481 -0.246141 0.0 
1.07664 -0.280149 0.0 
1.02286 -0.0013163 0.0 
0.595996 -0.17939 0.0 
0.603785 -0.151748 0.0 
0.627924 -0.211224 0.0 
0.395 -0.170074 0.0 
1.01376 -0.191745 0.0 
0.272176 -0.0994051 0.0 
1.07106 -0.166403 0.0 
0.978924 -0.144071 0.0 
0.967599 -0.19091 0.0 
0.946467 -0.299198 0.0 
0.459507 -0.192216 0.0 
0.876212 -0.238579 0.0 
0.348771 -0.137716 0.0 
1.00666 -0.301383 0.0 
0.636875 -0.189341 0.0 
0.327773 -0.143514 0.0 
1.00705 0.000931791 0.0 
0.497901 -0.195883 0.0 
0.766993 -0.181453 0.0 
0.376207 -0.1279 0.0 
0.380584 -0.126934 0.0 
0.122353 -0.056247 0.0 
0 0 0.0 
1.10273 -0.125811 0.0 
0 0 0.0 
0.865578 -0.233901 0.0 
0.898352 -0.294073 0.0 
0.994755 -0.137954 0.0 
0 0 0.0 
0.303307 -0.142598 0.0 
1.05448 0.0150719 0.0 
0.281122 -0.117598 0.0 
0.906311 -0.267136 0.0 
1.10433 -0.258079 0.0 
0.994793 -0.307464 0.0 
0.599838 -0.156046 0.0 
0.841395 -0.249825 0.0 
0.899003 -0.255048 0.0 
0.841122 -0.245132 0.0 
0.628438 -0.218742 0.0 
0.301784 -0.102176 0.0 
0.423071 -0.129496 0.0 
0.96658 -0.158328 0.0 
1.10611 -0.0234538 0.0 
1.04908 -0.274396 0.0 
0.74782 -0.183924 0.0 
1.02822 -0.260458 0.0 
0.925266 -0.299434 0.0 
1.09349 -0.0125826 0.0 
0.61855 -0.170948 0.0 
0.536559 -0.219765 0.0 
1.00422 -0.158763 0.0 
0.695355 -0.182091 0.0 
0.553495 -0.140884 0.0 
0.202947 -0.0982816 0.0 
0.531012 -0.174584 0.0 
1.03883 -0.155278 0.0 
1.05522 0.0185486 0.0 
1.00071 -0.273958 0.0 
0.882116 -0.279135 0.0 
1.12089 -0.0334459 0.0 
0.659004 -0.254484 0.0 
0.776924 -0.204146 0.0 
0.619447 -0.243934 0.0 
0.888069 0.0181134 0.0 
0.640843 -0.157715 0.0 
0.718333 -0.213376 0.0 
0.385318 -0.124462 0.0 
0.967709 -0.308504 0.0 
0.993171 0.0148833 0.0 
1.06254 -0.0095854 0.0 
0.545178 -0.182639 0.0 
0.260062 -0.10624 0.0 
0.899185 -0.231577 0.0 
0.197269 -0.0843602 0.0 
1.01776 0.0136298 0.0 
0.417051 -0.166953 0.0 
0.824465 -0.298223 0.0 
0.348063 -0.158358 0.0 
0.64418 -0.227183 0.0 
0 0 0.0 
0 0 0.0 
1.05962 -0.00806841 0.0 
0.747314 -0.280187 0.0 
0.824081 -0.297262 0.0 
1.11374 -0.0252932 0.0 
1.1108 -0.202176 0.0 
1.03644 0.0295236 0.0 
0.363682 -0.162042 0.0 
0.881935 -0.30071 0.0 
0.567665 -0.238008 0.0 
0 0 0.0 
0.421484 -0.188206 0.0 
1.07878 -0.0160813 0.0 
1.00801 -0.022719 0.0 
0.846692 -0.301371 0.0 
0.230262 -0.0792618 0.0 
1.09526 -0.263757 0.0 
0.654661 -0.237333 0.0 
1.01524 0.0154428 0.0 
0.922311 -0.295868 0.0 
0.9807 -0.30912 0.0 
0.817462 -0.283086 0.0 
0.199128 -0.0786424 0.0 
1.07913 -0.269043 0.0 
0.854374 -0.273287 0.0 
0.884118 -0.266552 0.0 
0.58716 -0.183004 0.0 
0 0 0.0 
0.981037 -0.198489 0.0 
0.969884 -0.13089 0.0 
0.839841 -0.262016 0.0 
0.0781615 -0.0279984 0.0 
1.103 -0.0184052 0.0 
1.09063 -0.271586 0.0 
0.843957 -0.236323 0.0 
0.365645 -0.153935 0.0 
0.530287 -0.196438 0.0 
0.230558 -0.105371 0.0 
1.01889 -0.154736 0.0 
1.08179 0.0081147 0.0 
0.964699 -0.271106 0.0 
1.03642 -0.250725 0.0 
0.732232 -0.184223 0.0 
0.887807 -0.284037 0.0 
0.996832 -0.0348985 0.0 
0.822025 -0.278894 0.0 
0.220088 -0.100786 0.0 
0.600964 -0.244673 0.0 
0.650098 -0.141764 0.0 
0.751694 -0.212617 0.0 
0 0 0.0 
0.696474 -0.270818 0.0 
0.91458 -0.307151 0.0 
0.781439 -0.23497 0.0 
0 0 0.0 
0.0832761 -0.0347126 0.0 
0.363082 -0.138652 0.0 
0.986221 -0.293302 0.0 
0.726539 -0.20284 0.0 
0.380438 -0.167263 0.0 
0.924525 -0.283038 0.0 
0.964783 -0.272644 0.0 
0.195901 -0.0970709 0.0 
1.10573 -0.0187232 0.0 
0.693291 -0.272039 0.0 
0.994769 -0.287439 0.0 
0 0 0.0 
0.179256 -0.0754943 0.0 
1.08193 -0.0245442 0.0 
0.8288 -0.291898 0.0 
0.601523 -0.15884 0.0 
0.735149 -0.2131 0.0 
0.233301 -0.08302 0.0 
0.920296 -0.255901 0.0 
0.329706 -0.112044 0.0 
0.104096 -0.0458343 0.0 
0.912203 -0.270399 0.0 
0.208997 -0.0907864 0.0 
0.991673 -0.286682 0.0 
0.497031 -0.21103 0.0 
0 0 0.0 
1.06071 0.0253069 0.0 
0.623265 -0.180527 0.0 
1.00991 0.0340685 0.0 
0.485258 -0.138495 0.0 
0.862551 -0.251473 0.0 
0.487127 -0.199635 0.0 
0.905746 -0.305481 0.0 
1.12289 -0.0375108 0.0 
0.815273 -0.201364 0.0 
0.753536 -0.210164 0.0 
0.876439 -0.25653 0.0 
0.659582 -0.182325 0.0 
1.02152 -0.286088 0.0 
0.808313 -0.241003 0.0 
0.868499 -0.24604 0.0 
0 0 0.0 
0.719208 -0.206308 0.0 
1.04644 -0.293809 0.0 
0.91149 -0.258057 0.0 
0.504423 -0.203974 0.0 
1.03337 -0.297916 0.0 
1.03533 -0.293623 0.0 
0 0 0.0 
1.11133 -0.0959344 0.0 
1.08672 -0.000773861 0.0 
0.813786 -0.200665 0.0 
0.920615 -0.260793 0.0 
1.05527 -0.283684 0.0 
1.00007 -0.266665 0.0 
0.108788 -0.0486964 0.0 
0 0 0.0 
0.187645 -0.044992 0.0 
1.04154 -0.296699 0.0 
0.534851 -0.147093 0.0 
0.448387 -0.116566 0.0 
0.928775 -0.269081 0.0 
0.997514 -0.280844 0.0 
0.301031 -0.0762477 0.0 
0.734999 -0.217719 0.0 
0.91186 -0.287202 0.0 
1.0438 -0.293236 0.0 
0.999278 0.0274105 0.0 
0.155976 -0.0582818 0.0 
0.183913 -0.0510716 0.0 
0 0 0.0 
0.15568 -0.0392944 0.0 
0.366059 -0.106142 0.0 
0.803526 -0.231838 0.0 
1.0416 -0.28373 0.0 
1.02683 -0.28008 0.0 
0.150173 -0.0526046 0.0 
0 0 0.0 
0.902606 -0.24792 0.0 
0 0 0.0 
0.993261 -0.294314 0.0 
1.05385 -0.288774 0.0 
0.958834 -0.255572 0.0 
1.06207 0.0233175 0.0 
0.952369 -0.28557 0.0 
0.357765 -0.0873593 0.0 
1.02758 -0.049858 0.0 
0.961042 -0.245836 0.0 
0.092134 -0.0325071 0.0 
0.821594 -0.296926 0.0 
0.414185 -0.145558 0.0 
0.915327 -0.266078 0.0 
0.377587 -0.138112 0.0 
0.334172 -0.154029 0.0 
0.960201 -0.306687 0.0 
0.861073 -0.283249 0.0 
1.0385 0.00564032 0.0 
0.635844 -0.236709 0.0 
0 0 0.0 
0.807688 -0.25439 0.0 
0.927094 -0.30955 0.0 
0.998178 0.0189964 0.0 
0.736517 -0.273088 0.0 
1.12878 -0.0455704 0.0 
0.140837 -0.0471359 0.0 
0.300499 -0.135265 0.0 
0.835162 -0.264867 0.0 
1.04809 -0.261591 0.0 
1.01771 0.0206678 0.0 
0.808991 -0.270518 0.0 
0.922973 -0.276353 0.0 
0.103228 -0.0431159 0.0 
0.743281 -0.242904 0.0 
0.633794 -0.228607 0.0 
0.961895 -0.278068 0.0 
0.601102 -0.238564 0.0 
0.0960141 -0.0377516 0.0 
0.883852 -0.23651 0.0 
0 0 0.0 
0.935291 -0.278015 0.0 
0.106431 -0.045543 0.0 
0.650798 -0.236115 0.0 
0.176358 -0.0670902 0.0 
0.109272 -0.0481645 0.0 
0.886886 -0.29505 0.0 
0.170838 -0.0693686 0.0 
0.125795 -0.0593041 0.0 
0.712829 -0.2322 0.0 
0.999629 -0.307011 0.0 
0.88757 -0.306366 0.0 
0.30307 -0.119438 0.0 
0 0 0.0 
1.00178 -0.281964 0.0 
0.322143 -0.105675 0.0 
0 0 0.0 
0.191811 -0.0446026 0.0 
0.820519 -0.290686 0.0 
0.494927 -0.18397 0.0 
0.104835 -0.0486288 0.0 
1.08804 0.00216505 0.0 
1.03036 0.000744422 0.0 
0.955703 -0.263542 0.0 
0.799818 -0.189292 0.0 
1.02313 -0.291556 0.0 
0.979619 -0.291691 0.0 
1.07677 0.0137874 0.0 
1.01004 -2.7646e-05 0.0 
0 0 0.0 
1.00552 -0.296893 0.0 
0.485336 -0.173425 0.0 
0.460722 -0.200663 0.0 
0.784008 -0.290549 0.0 
0.982347 -0.297286 0.0 
0.903844 -0.262032 0.0 
0 0 0.0 
0.294922 -0.120861 0.0 
0.858419 -0.246668 0.0 
0.381825 -0.146654 0.0 
1.109 -0.0192716 0.0 
0.957607 0.0130735 0.0 
1 0 0.0 
0.904346 -0.239935 0.0 
0.845469 -0.301017 0.0 
0.400132 -0.132171 0.0 
0.747424 -0.280159 0.0 
0.645991 -0.165458 0.0 
1.01015 -0.206967 0.0 
0.841858 -0.22104 0.0 
0.838396 -0.226059 0.0 
0.924917 -0.264192 0.0 
0.797147 -0.259893 0.0 
0.581662 -0.186833 0.0 
1.00098 0.0180188 0.0 
1.02606 -0.000296117 0.0 
1.00624 -0.289545 0.0 
1.10127 -0.0111515 0.0 
1.07547 0.0128104 0.0 
1.04111 -0.288759 0.0 
0.989411 -0.277214 0.0 
0.975323 -0.254474 0.0 
0.97642 -0.27081 0.0 
0.754164 -0.235905 0.0 
1.04976 -0.278741 0.0 
0.99382 -0.168881 0.0 
0.572588 -0.226769 0.0 
0.399259 -0.16592 0.0 
1.0782 -0.00221064 0.0 
1.08533 0.00527311 0.0 
0 0 0.0 
1.07034 -0.264684 0.0 
0.955831 -0.229153 0.0 
0.988186 -0.265412 0.0 
0.685788 -0.202374 0.0 
0.951953 -0.293901 0.0 
1.02873 -0.186638 0.0 
1.05255 -0.292883 0.0 
0.493359 -0.128736 0.0 
0.881509 -0.275066 0.0 
0.748882 -0.199045 0.0 
1.01856 -0.0408228 0.0 
1.07985 0.00199953 0.0 
1.07941 0.00508031 0.0 
1.00543 0.00849075 0.0 
1.04518 -0.0703072 0.0 
0.911108 -0.249284 0.0 
1.09689 -0.00914546 0.0 
0.866491 -0.304055 0.0 
1.04171 -0.0166678 0.0 
0.928943 -0.30884 0.0 
1.05522 -0.290535 0.0 
1.04891 -0.000893746 0.0 
0 0 0.0 
0.568417 -0.235499 0.0 
0.894263 -0.272439 0.0 
0.641736 -0.152533 0.0 
0 0 0.0 
1.02227 0.0136654 0.0 
0.97395 -0.236508 0.0 
1.12592 -0.0400547 0.0 
0.67731 -0.232084 0.0 
1.00907 0.00208904 0.0 
0.654712 -0.199043 0.0 
1.01734 -0.178031 0.0 
0.780324 -0.250133 0.0 
0.898931 -0.307524 0.0 
0.956399 -0.289471 0.0 
1.06145 -0.288429 0.0 
0.217326 -0.0694148 0.0 
0.87543 -0.233853 0.0 
0.786624 -0.193939 0.0 
0.865931 -0.261531 0.0 
0.818107 -0.284346 0.0 
0.681474 -0.215185 0.0 
0.781148 -0.276919 0.0 
0.0730887 -0.0285001 0.0 
0.721842 -0.238781 0.0 
0.982073 -0.160012 0.0 
0.95937 -0.279631 0.0 
0.204309 -0.072342 0.0 
0.917234 -0.285614 0.0 
0.695396 -0.257888 0.0 
0.981785 -0.219918 0.0 
0.74274 -0.186979 0.0 
0.944545 -0.301006 0.0 
1.0396 0.0196763 0.0 
0.959563 -0.300903 0.0 
0.354572 -0.111221 0.0 
0.695018 -0.268738 0.0 
0.877203 -0.255476 0.0 
0.219709 -0.0770197 0.0 
0.511333 -0.183885 0.0 
0 0 0.0 
0.849185 -0.23245 0.0 
0.722924 -0.169473 0.0 
0 0 0.0 
0.29349 -0.138367 0.0 
1.08461 -0.002126 0.0 
1.05557 -0.286645 0.0 
1.06469 -0.192912 0.0 
0.678179 -0.189897 0.0 
1.02872 -0.29824 0.0 
0.792725 -0.192125 0.0 
1.00326 0.000930257 0.0 
0.927924 -0.271205 0.0 
0 0 0.0 
0.541366 -0.214184 0.0 
0.297566 -0.111778 0.0 
0.638607 -0.200384 0.0 
0.639591 -0.169723 0.0 
0.916545 -0.304771 0.0 
1.03091 0.00078932 0.0 
0.821634 -0.210648 0.0 
0.363477 -0.148109 0.0 
0.477117 -0.160818 0.0 
0.808764 -0.211065 0.0 
0.729037 -0.243524 0.0 
0.868928 -0.303791 0.0 
1.05207 -0.102835 0.0 
0.891043 -0.305488 0.0 
1.00245 -0.272402 0.0 
0.879511 -0.295092 0.0 
0.968402 -0.222506 0.0 
0.802215 -0.294339 0.0 
1.10647 -0.0166455 0.0 
0.558964 -0.234498 0.0 
0.566592 -0.161834 0.0 
0.909245 -0.276832 0.0 
0.909849 -0.290636 0.0 
1.04255 -0.180416 0.0 
0.9829 0.0115047 0.0 
0.432503 -0.15734 0.0 
1.02799 0.028126 0.0 
0.951372 -0.304072 0.0 
1.11065 -0.0277856 0.0 
1.00297 -0.181079 0.0 
0.846803 -0.267429 0.0 
0 0 0.0 
1.10247 -0.260272 0.0 
0.917354 -0.29176 0.0 
0.215364 -0.0896917 0.0 
0.245453 -0.11434 0.0 
0.891845 -0.222463 0.0 
0 0 0.0 
0.873899 -0.249543 0.0 
0.708832 -0.169677 0.0 
0.997896 -0.19528 0.0 
0.900454 -0.270155 0.0 
0.939878 -0.270562 0.0 
0.741844 -0.282043 0.0 
0.52189 -0.155871 0.0 
1.06535 -0.286828 0.0 
1.00623 -0.169913 0.0 
0.581481 -0.21336 0.0 
1.0117 -0.136209 0.0 
0.893053 -0.239365 0.0 
1.14124 -0.0639326 0.0 
1.00619 -0.304328 0.0 
0.87595 -0.301086 0.0 
1.02174 0.0320721 0.0 
0.603892 -0.230939 0.0 
0.740246 -0.225501 0.0 
0.679613 -0.219688 0.0 
1.07013 -0.282964 0.0 
0.856072 -0.230061 0.0 
0 0 0.0 
0.524951 -0.1958 0.0 
0.672819 -0.266435 0.0 
1.00016 -0.000775925 0.0 
1.08756 -0.185576 0.0 
1.01072 6.06132e-05 0.0 
0.759354 -0.222617 0.0 
0.645921 -0.25571 0.0 
1.06285 -0.178044 0.0 
0.769355 -0.235995 0.0 
1.02433 -0.0155362 0.0 
0.1892 -0.0504749 0.0 
1.05272 -0.18742 0.0 
1.05607 0.0213769 0.0 
0.400286 -0.138104 0.0 
1.13174 -0.0493493 0.0 
1.08204 0.00586621 0.0 
0.7001 -0.15692 0.0 
0.681496 -0.263605 0.0 
0.736463 -0.252354 0.0 
0.470938 -0.190908 0.0 
1.0096 -0.000634821 0.0 
0.652179 -0.220886 0.0 
0.742491 -0.282632 0.0 
0.821277 -0.227112 0.0 
0.935084 -0.249436 0.0 
1.06076 -0.227799 0.0 
1.05974 -0.16442 0.0 
1.01182 -0.297034 0.0 
0.140257 -0.0691175 0.0 
1.14926 -0.19397 0.0 
1.05265 -0.00316114 0.0 
1.08081 -0.00625274 0.0 
0.90672 -0.282631 0.0 
0.77024 -0.282138 0.0 
0.447761 -0.166125 0.0 
1.07818 -0.277195 0.0 
0.666325 -0.192768 0.0 
1.08268 -0.169672 0.0 
0.87611 -0.244204 0.0 
1.03459 -0.00484884 0.0 
0.963972 -0.28485 0.0 
0.832456 -0.219805 0.0 
0.743406 -0.196701 0.0 
0.734474 -0.234251 0.0 
1.03314 -0.271702 0.0 
0.693331 -0.26378 0.0 
0.237099 -0.104738 0.0 
0.819039 -0.237901 0.0 
0.574627 -0.13971 0.0 
0.699239 -0.232682 0.0 
0.546619 -0.162231 0.0 
0.589758 -0.205852 0.0 
0.859892 -0.284135 0.0 
0 0 0.0 
0.209535 -0.0674479 0.0 
1.1357 -0.0549912 0.0 
0.392406 -0.120244 0.0 
0.771231 -0.287323 0.0 
1.04217 0.0152151 0.0 
0.496927 -0.211995 0.0 
0.935792 -0.306514 0.0 
0.860593 -0.243131 0.0 
0 0 0.0 
1.03271 -0.172011 0.0 
1.07103 0.0170107 0.0 
1.05209 -0.21647 0.0 
0.762795 -0.284693 0.0 
0.221772 -0.0975647 0.0 
0.658021 -0.213086 0.0 
0.950227 -0.238788 0.0 
1.00757 -0.147619 0.0 
0.623522 -0.254022 0.0 
1.06806 0.0204952 0.0 
1.12509 -0.238555 0.0 
0.741043 -0.26635 0.0 
1.09615 -0.249955 0.0 
0.204723 -0.0967353 0.0 