<VTKFile type="UnstructuredGrid" version="0.1" byte_order="LittleEndian">
  <UnstructuredGrid>
    <Piece NumberOfPoints="14233" NumberOfCells="27744">
      <Points>
        <DataArray type = "Float64" NumberOfComponents="3" format="ascii">
1.00212 0.982989 0.0 
1.01754 0.978913 0.0 
1.03875 0.974132 0.0 
1.00144 0.955083 0.0 
0.996788 0.981166 0.0 
0.994301 0.979641 0.0 
1.00655 0.985733 0.0 
0.988877 0.937149 0.0 
1.05567 0.976663 0.0 
1.00101 0.982805 0.0 
1.00294 0.983618 0.0 
1.01515 0.983571 0.0 
1.04137 0.971528 0.0 
1.04295 0.970577 0.0 
0.991904 0.976856 0.0 
1.02256 0.98289 0.0 
1.00285 0.974304 0.0 
1.00131 0.975418 0.0 
1.01283 0.987478 0.0 
1.01128 0.956147 0.0 
0.999113 0.979035 0.0 
0.990691 0.931057 0.0 
0.999361 0.981516 0.0 
0.995999 0.979487 0.0 
0.997483 0.98025 0.0 
0.994434 0.978441 0.0 
0.998084 0.981337 0.0 
0.9928 0.978739 0.0 
1.01496 0.985521 0.0 
1.01035 0.949939 0.0 
0.997663 0.978919 0.0 
0.994843 0.935521 0.0 
1.02194 0.97955 0.0 
0.99939 0.958382 0.0 
1.00107 0.934176 0.0 
0.989373 0.949454 0.0 
0.996617 0.964462 0.0 
1.00716 0.959529 0.0 
1.02198 0.982244 0.0 
0.993425 0.965798 0.0 
1.01223 0.988406 0.0 
1.0223 0.986324 0.0 
0.988134 0.963246 0.0 
0.993627 0.960854 0.0 
0.991392 0.963672 0.0 
1.01098 0.983392 0.0 
1.0006 0.981745 0.0 
1.01018 0.962286 0.0 
1.00324 0.957892 0.0 
1.04377 0.980039 0.0 
1.00141 0.951517 0.0 
1.02277 0.9794 0.0 
1.05376 0.976328 0.0 
0.991649 0.9723 0.0 
1.04906 0.972524 0.0 
1.00544 0.984567 0.0 
1.03068 0.976525 0.0 
1.00542 0.978008 0.0 
1.00803 0.985775 0.0 
1.03753 0.973096 0.0 
1.01829 0.981524 0.0 
1.01751 0.985854 0.0 
1.01089 0.987552 0.0 
1.05548 0.975313 0.0 
1.04022 0.971606 0.0 
1.03414 0.973213 0.0 
1.02142 0.981018 0.0 
1.00979 0.989845 0.0 
1.03768 0.971378 0.0 
1.01902 0.95984 0.0 
1.04475 0.974185 0.0 
1.0434 0.977879 0.0 
1.05739 0.976344 0.0 
1.04981 0.976056 0.0 
1.04393 0.97949 0.0 
0.99734 0.9615 0.0 
1.01697 0.984574 0.0 
1.01207 0.940104 0.0 
0.996505 0.974274 0.0 
1.05788 0.976262 0.0 
1.02131 0.985245 0.0 
1.03148 0.983717 0.0 
0.999984 0.976622 0.0 
1.014 0.982181 0.0 
1.0342 0.974606 0.0 
1.0294 0.97146 0.0 
1.0142 0.985415 0.0 
1.03471 0.978979 0.0 
1.01283 0.952674 0.0 
1.04438 0.970285 0.0 
1.0542 0.976977 0.0 
1.03334 0.980052 0.0 
1.05058 0.974564 0.0 
1.02049 0.985309 0.0 
1.04127 0.979283 0.0 
1.02665 0.980542 0.0 
1.04487 0.972816 0.0 
0.996711 0.975886 0.0 
0.996427 0.930701 0.0 
1.04629 0.975968 0.0 
1.04291 0.972377 0.0 
1.02844 0.975578 0.0 
1.03956 0.972262 0.0 
1.02175 0.980352 0.0 
1.02009 0.982504 0.0 
1.00529 0.981433 0.0 
1.00377 0.962996 0.0 
1.04546 0.979028 0.0 
1.04631 0.970652 0.0 
1.02748 0.980842 0.0 
1.05082 0.977864 0.0 
1.00566 0.949437 0.0 
1.04547 0.979516 0.0 
0.999741 0.974854 0.0 
0.999925 0.963483 0.0 
1.00988 0.986459 0.0 
1.0075 0.98437 0.0 
0.98567 0.954181 0.0 
1.02573 0.983391 0.0 
1.01771 0.985132 0.0 
1.02929 0.977414 0.0 
1.01624 0.980691 0.0 
1.04755 0.973106 0.0 
1.04186 0.979617 0.0 
1.03685 0.97025 0.0 
1.03241 0.979642 0.0 
1.05601 0.975957 0.0 
1.03755 0.974282 0.0 
1.01392 0.97723 0.0 
1.03961 0.978879 0.0 
1.03453 0.976012 0.0 
1.05182 0.974186 0.0 
1.02757 0.983582 0.0 
1.01573 0.980184 0.0 
1.02282 0.98217 0.0 
1.04716 0.975678 0.0 
1.03281 0.977495 0.0 
1.03746 0.980515 0.0 
1.01669 0.987022 0.0 
1.042 0.973785 0.0 
1.02011 0.986057 0.0 
1.04539 0.97587 0.0 
1.02326 0.98518 0.0 
1.02794 0.974911 0.0 
1.04638 0.977199 0.0 
1.03939 0.97466 0.0 
1.00388 0.981338 0.0 
1.05243 0.971569 0.0 
1.01601 0.985596 0.0 
1.05332 0.976134 0.0 
1.01904 0.979597 0.0 
1.04147 0.973046 0.0 
0.986639 0.959451 0.0 
1.01556 0.985112 0.0 
1.02965 0.97671 0.0 
1.03016 0.978594 0.0 
1.04623 0.974878 0.0 
1.04324 0.979343 0.0 
1.03117 0.975772 0.0 
1.01225 0.987127 0.0 
0.997049 0.977699 0.0 
0.986217 0.966249 0.0 
1.03647 0.982247 0.0 
1.01886 0.980971 0.0 
1.0064 0.955836 0.0 
1.02345 0.981151 0.0 
1.03335 0.96983 0.0 
1.03212 0.981295 0.0 
1.02247 0.981542 0.0 
1.01466 0.979302 0.0 
1.01252 0.985587 0.0 
1.04803 0.977334 0.0 
1.0452 0.974451 0.0 
1.04133 0.970961 0.0 
1.04469 0.977131 0.0 
1.00718 0.985196 0.0 
1.04411 0.972254 0.0 
1.01029 0.981872 0.0 
1.01984 0.976498 0.0 
1.02041 0.979196 0.0 
1.04024 0.981116 0.0 
1.00952 0.98332 0.0 
1.03314 0.983232 0.0 
0.995452 0.977307 0.0 
1.00948 0.953767 0.0 
1.05041 0.970479 0.0 
1.04072 0.974385 0.0 
1.03146 0.980238 0.0 
1.0096 0.974576 0.0 
1.05671 0.975314 0.0 
1.01302 0.986913 0.0 
1.0533 0.972742 0.0 
1.02449 0.982715 0.0 
0.993572 0.95095 0.0 
1.04062 0.973613 0.0 
1.01144 0.989273 0.0 
1.03802 0.977904 0.0 
1.01247 0.982295 0.0 
1.0299 0.984175 0.0 
1.04373 0.97292 0.0 
1.03227 0.983489 0.0 
1.05053 0.9764 0.0 
1.03795 0.971943 0.0 
1.03397 0.981277 0.0 
1.03636 0.972129 0.0 
1.03111 0.983119 0.0 
1.04488 0.977732 0.0 
1.01401 0.973505 0.0 
1.0496 0.973791 0.0 
1.04038 0.978856 0.0 
1.04848 0.971812 0.0 
1.03203 0.972892 0.0 
1.05544 0.973006 0.0 
1.04398 0.977409 0.0 
1.02293 0.977223 0.0 
1.02809 0.978694 0.0 
1.0195 0.986473 0.0 
1.0257 0.975102 0.0 
1.02321 0.980042 0.0 
1.0394 0.971256 0.0 
1.02882 0.981604 0.0 
1.01288 0.988837 0.0 
1.02821 0.97407 0.0 
1.04254 0.971231 0.0 
1.04553 0.973573 0.0 
1.01396 0.983766 0.0 
1.00692 0.968032 0.0 
1.05631 0.97416 0.0 
0.99845 0.944015 0.0 
1.0529 0.973369 0.0 
0.998384 0.976269 0.0 
1.02602 0.979912 0.0 
1.01641 0.985134 0.0 
0.999923 0.979623 0.0 
1.0078 0.98641 0.0 
1.05698 0.975744 0.0 
1.04375 0.976288 0.0 
1.0486 0.976802 0.0 
1.02635 0.979034 0.0 
1.01463 0.984057 0.0 
1.02008 0.977821 0.0 
1.02182 0.985814 0.0 
1.02054 0.981654 0.0 
1.0417 0.975897 0.0 
1.0134 0.986478 0.0 
1.03062 0.979265 0.0 
1.05173 0.97616 0.0 
1.02018 0.984014 0.0 
1.02766 0.976944 0.0 
1.03706 0.976186 0.0 
0.993401 0.94095 0.0 
1.01136 0.988077 0.0 
1.04151 0.977865 0.0 
1.02568 0.971793 0.0 
1.03828 0.976117 0.0 
1.0087 0.980299 0.0 
1.00731 0.985942 0.0 
1.04854 0.978559 0.0 
1.01847 0.98302 0.0 
1.04399 0.974315 0.0 
1.05127 0.9719 0.0 
1.04706 0.974924 0.0 
1.04104 0.97718 0.0 
1.04899 0.977532 0.0 
1.03161 0.982874 0.0 
1.00916 0.984675 0.0 
1.0381 0.977343 0.0 
0.99948 0.972898 0.0 
0.995807 0.968987 0.0 
1.02456 0.9764 0.0 
1.03975 0.974019 0.0 
1.0097 0.980218 0.0 
1.03958 0.980715 0.0 
1.02707 0.984334 0.0 
0.990934 0.970028 0.0 
1.0442 0.977994 0.0 
1.03885 0.975385 0.0 
1.01899 0.98171 0.0 
1.05121 0.973234 0.0 
1.03202 0.982385 0.0 
1.03622 0.979654 0.0 
1.02165 0.978273 0.0 
1.04374 0.975058 0.0 
1.05269 0.971161 0.0 
1.03418 0.981922 0.0 
1.03174 0.976349 0.0 
1.00944 0.987796 0.0 
1.0357 0.979158 0.0 
1.01264 0.988906 0.0 
1.02016 0.980039 0.0 
1.02803 0.978063 0.0 
1.00902 0.986528 0.0 
1.01219 0.98641 0.0 
1.03622 0.976855 0.0 
1.01531 0.984312 0.0 
1.03069 0.972158 0.0 
1.00135 0.97701 0.0 
1.04988 0.972977 0.0 
1.0298 0.981298 0.0 
1.01382 0.986833 0.0 
1.05441 0.973265 0.0 
1.02352 0.977904 0.0 
1.03341 0.975425 0.0 
0.989048 0.972277 0.0 
1.04248 0.975966 0.0 
1.05472 0.975385 0.0 
1.02414 0.98071 0.0 
0.995895 0.958903 0.0 
1.01348 0.979731 0.0 
1.02826 0.981189 0.0 
1.00408 0.978569 0.0 
1.04068 0.973043 0.0 
1.01097 0.989429 0.0 
1.02619 0.982046 0.0 
1.04045 0.979652 0.0 
1.03904 0.970711 0.0 
1.00617 0.97444 0.0 
1.01009 0.987268 0.0 
1.0383 0.972445 0.0 
1.00944 0.979047 0.0 
1.03648 0.978118 0.0 
1.01026 0.989674 0.0 
0.994083 0.971086 0.0 
1.03663 0.973804 0.0 
1.01967 0.98128 0.0 
1.04792 0.978098 0.0 
1.00858 0.985188 0.0 
1.01463 0.981501 0.0 
1.01069 0.98817 0.0 
1.03548 0.97449 0.0 
1.01457 0.98838 0.0 
1.04949 0.971717 0.0 
1.03227 0.976926 0.0 
1.05511 0.974707 0.0 
1.01795 0.987498 0.0 
1.00814 0.983417 0.0 
1.02145 0.975806 0.0 
1.01974 0.955488 0.0 
1.04699 0.969154 0.0 
1.03575 0.982462 0.0 
1.02915 0.983673 0.0 
1.03353 0.982464 0.0 
1.04752 0.974391 0.0 
1.00801 0.978951 0.0 
0.997539 0.972589 0.0 
0.987665 0.969386 0.0 
0.99448 0.963257 0.0 
1.05218 0.975675 0.0 
1.01933 0.978346 0.0 
1.01216 0.989049 0.0 
1.01707 0.98528 0.0 
1.04005 0.975218 0.0 
1.02364 0.979302 0.0 
1.04124 0.980014 0.0 
1.01041 0.980782 0.0 
1.03363 0.979285 0.0 
1.05774 0.974499 0.0 
1.04244 0.97825 0.0 
0.993291 0.973626 0.0 
1.04911 0.973253 0.0 
1.0562 0.975015 0.0 
1.026 0.984018 0.0 
1.03634 0.973215 0.0 
1.04085 0.972072 0.0 
1.04669 0.973274 0.0 
1.00579 0.952596 0.0 
1.03137 0.979644 0.0 
1.03136 0.982065 0.0 
1.0396 0.978246 0.0 
1.03467 0.972439 0.0 
1.00493 0.971587 0.0 
1.02452 0.981201 0.0 
1.02157 0.986521 0.0 
1.01324 0.971252 0.0 
1.03176 0.977674 0.0 
1.01559 0.978749 0.0 
1.0481 0.975695 0.0 
1.00727 0.982079 0.0 
1.01053 0.979562 0.0 
1.00273 0.976259 0.0 
1.05299 0.977268 0.0 
1.03709 0.981588 0.0 
1.03863 0.978276 0.0 
1.01017 0.988018 0.0 
1.05178 0.977588 0.0 
1.02704 0.977412 0.0 
1.04798 0.972511 0.0 
1.02737 0.975875 0.0 
1.0458 0.974347 0.0 
1.0267 0.985095 0.0 
1.0096 0.989227 0.0 
1.04197 0.980062 0.0 
1.01916 0.982408 0.0 
1.00914 0.988554 0.0 
1.05417 0.972472 0.0 
1.03321 0.972073 0.0 
1.00786 0.973886 0.0 
0.988738 0.956996 0.0 
1.00439 0.975302 0.0 
1.01854 0.980534 0.0 
1.02982 0.97463 0.0 
1.03275 0.982265 0.0 
1.01318 0.96777 0.0 
1.03729 0.978129 0.0 
1.01828 0.985781 0.0 
1.00646 0.979129 0.0 
1.01843 0.975367 0.0 
0.99089 0.974483 0.0 
1.02153 0.982846 0.0 
1.03821 0.97482 0.0 
1.03052 0.981928 0.0 
1.03935 0.981385 0.0 
1.05438 0.976184 0.0 
1.03224 0.97424 0.0 
1.04726 0.978358 0.0 
1.01955 0.980604 0.0 
1.05014 0.972241 0.0 
1.02013 0.983294 0.0 
1.03452 0.975337 0.0 
1.04511 0.970827 0.0 
1.03338 0.97805 0.0 
1.04986 0.978149 0.0 
1.04573 0.968592 0.0 
1.05838 0.975066 0.0 
1.05034 0.97746 0.0 
1.04866 0.973807 0.0 
1.04851 0.977916 0.0 
1.012 0.97967 0.0 
1.04744 0.971886 0.0 
1.04183 0.976597 0.0 
1.00974 0.988493 0.0 
1.00883 0.989324 0.0 
1.04638 0.971993 0.0 
1.00931 0.985398 0.0 
1.05165 0.972662 0.0 
1.04229 0.969174 0.0 
1.04972 0.977457 0.0 
1.05347 0.977148 0.0 
1.03279 0.976179 0.0 
1.02264 0.983707 0.0 
1.0296 0.979881 0.0 
1.01625 0.982682 0.0 
1.0091 0.983984 0.0 
1.02317 0.986083 0.0 
1.04969 0.974661 0.0 
1.04902 0.974408 0.0 
[...]
<PointData>
  <DataArray type = "Float64" Name="Vitesse" NumberOfComponents="3" format="ascii">
0.781947 -0.311673 0.0 
0.933434 -0.300576 0.0 
0.925687 -0.252861 0.0 
0.924246 -0.165555 0.0 
0.762436 -0.2313 0.0 
0.771925 -0.197811 0.0 
0.809014 -0.377726 0.0 
0.941657 -0.108818 0.0 
0 0 0.0 
0.771598 -0.296344 0.0 
0.785322 -0.329159 0.0 
0.777119 -0.262679 0.0 
1.01175 -0.263581 0.0 
1.03341 -0.262347 0.0 
0.79497 -0.170801 0.0 
0.555734 -0.162294 0.0 
0.856295 -0.243831 0.0 
0.840241 -0.241148 0.0 
0.329535 -0.106811 0.0 
0.951558 -0.191 0.0 
0.798035 -0.245593 0.0 
0.953056 -0.105035 0.0 
0.772931 -0.264828 0.0 
0.77826 -0.215652 0.0 
0.776142 -0.235048 0.0 
0.784216 -0.196422 0.0 
0.766592 -0.248101 0.0 
0.778532 -0.180981 0.0 
0.547482 -0.17543 0.0 
0.959164 -0.170231 0.0 
0.79104 -0.230491 0.0 
0.95142 -0.116432 0.0 
0.881942 -0.269983 0.0 
0.909871 -0.168054 0.0 
0.962502 -0.123234 0.0 
0.916875 -0.12369 0.0 
0.881286 -0.173712 0.0 
0.930352 -0.193734 0.0 
0.660637 -0.196611 0.0 
0.867877 -0.162321 0.0 
0.162789 -0.0512947 0.0 
0 0 0.0 
0.872041 -0.13513 0.0 
0.888768 -0.153684 0.0 
0.874128 -0.149502 0.0 
0.867923 -0.334891 0.0 
0.780377 -0.281325 0.0 
0.934927 -0.211157 0.0 
0.921857 -0.177923 0.0 
0 0 0.0 
0.932978 -0.156784 0.0 
0.876042 -0.265973 0.0 
0.192933 -0.0453166 0.0 
0.828587 -0.163502 0.0 
0.895952 -0.222938 0.0 
0.813329 -0.364135 0.0 
0.904263 -0.258917 0.0 
0.855093 -0.285232 0.0 
0.806297 -0.360731 0.0 
0.980795 -0.266009 0.0 
0.840832 -0.269616 0.0 
0.341031 -0.0984529 0.0 
0.470722 -0.176785 0.0 
0.335452 -0.0700631 0.0 
1.01338 -0.266052 0.0 
0.992517 -0.273008 0.0 
0.799129 -0.244249 0.0 
0 0 0.0 
1.02225 -0.270656 0.0 
0.974571 -0.216237 0.0 
0.830326 -0.222067 0.0 
0.425451 -0.122846 0.0 
0 0 0.0 
0.451475 -0.124301 0.0 
0.104652 -0.0313789 0.0 
0.894505 -0.169158 0.0 
0.580686 -0.180207 0.0 
0.97617 -0.147798 0.0 
0.825897 -0.201734 0.0 
0 0 0.0 
0.246984 -0.0692438 0.0 
0 0 0.0 
0.823826 -0.238709 0.0 
0.881061 -0.30988 0.0 
0.950684 -0.265185 0.0 
1.00664 -0.274585 0.0 
0.608898 -0.202666 0.0 
0.59863 -0.170519 0.0 
0.962052 -0.182035 0.0 
1.03843 -0.259378 0.0 
0 0 0.0 
0.50979 -0.146026 0.0 
0.653035 -0.168087 0.0 
0.277508 -0.0780441 0.0 
0.289703 -0.0854708 0.0 
0.686038 -0.199649 0.0 
0.929124 -0.242059 0.0 
0.814246 -0.209063 0.0 
0.960368 -0.112159 0.0 
0.595293 -0.165568 0.0 
0.971718 -0.254265 0.0 
0.959956 -0.276623 0.0 
0.99719 -0.265093 0.0 
0.839509 -0.256798 0.0 
0.702892 -0.214445 0.0 
0.83452 -0.319944 0.0 
0.908767 -0.195946 0.0 
0.107846 -0.0328614 0.0 
1.02221 -0.252456 0.0 
0.62364 -0.180259 0.0 
0 0 0.0 
0.947655 -0.160632 0.0 
0 0 0.0 
0.83539 -0.227396 0.0 
0.894459 -0.184263 0.0 
0.704274 -0.290533 0.0 
0.840981 -0.363351 0.0 
0.900317 -0.11871 0.0 
0.3414 -0.0972613 0.0 
0.454582 -0.134956 0.0 
0.876939 -0.253562 0.0 
0.905589 -0.301627 0.0 
0.872209 -0.223638 0.0 
0.199034 -0.0595737 0.0 
1.03487 -0.270108 0.0 
0.59612 -0.17056 0.0 
0.163429 -0.0324806 0.0 
0.93179 -0.255979 0.0 
0.926638 -0.298764 0.0 
0.429521 -0.12381 0.0 
0.875632 -0.246189 0.0 
0.668311 -0.165264 0.0 
0.224323 -0.0640283 0.0 
0.91793 -0.307117 0.0 
0.637024 -0.188026 0.0 
0.607017 -0.16732 0.0 
0.80238 -0.228412 0.0 
0.264504 -0.0773971 0.0 
0.166278 -0.0459259 0.0 
0.904637 -0.24288 0.0 
0.16308 -0.0450154 0.0 
0.636588 -0.176295 0.0 
0.160864 -0.0449664 0.0 
0.975654 -0.280237 0.0 
0.405582 -0.117245 0.0 
0.885488 -0.242568 0.0 
0.818394 -0.308921 0.0 
0.924115 -0.210575 0.0 
0.473477 -0.145115 0.0 
0.264464 -0.0648885 0.0 
0.914308 -0.290621 0.0 
0.952492 -0.253592 0.0 
0.884529 -0.126129 0.0 
0.577317 -0.183569 0.0 
0.908743 -0.261722 0.0 
0.773477 -0.222564 0.0 
0.730677 -0.19728 0.0 
0.175839 -0.0526935 0.0 
0.932714 -0.265536 0.0 
0.447037 -0.154533 0.0 
0.800074 -0.219157 0.0 
0.857378 -0.128878 0.0 
0 0 0.0 
0.861458 -0.274116 0.0 
0.93628 -0.17981 0.0 
0.726934 -0.215925 0.0 
1.02637 -0.269388 0.0 
0.382089 -0.10976 0.0 
0.719988 -0.215489 0.0 
0.925453 -0.309936 0.0 
0.675098 -0.243265 0.0 
0.300667 -0.0885741 0.0 
0.797009 -0.213902 0.0 
1.02676 -0.265218 0.0 
0.48657 -0.13897 0.0 
0.824077 -0.37065 0.0 
0.967707 -0.250809 0.0 
0.887204 -0.335048 0.0 
0.95649 -0.292297 0.0 
0.915039 -0.285421 0.0 
0 0 0.0 
0.86882 -0.347009 0.0 
0 0 0.0 
0.797888 -0.203055 0.0 
0.94992 -0.179825 0.0 
1.009 -0.234162 0.0 
0.883461 -0.240441 0.0 
0.555433 -0.159157 0.0 
0.900469 -0.273536 0.0 
0.279015 -0.0529693 0.0 
0.431954 -0.142712 0.0 
0.805576 -0.183577 0.0 
0.497423 -0.143335 0.0 
0.919072 -0.136454 0.0 
0.93177 -0.250916 0.0 
0 0 0.0 
0.619389 -0.175821 0.0 
0.887982 -0.324261 0.0 
0 0 0.0 
0.93582 -0.245903 0.0 
0 0 0.0 
0.353415 -0.0976688 0.0 
1.01098 -0.269603 0.0 
0.303098 -0.0877404 0.0 
1.0098 -0.271778 0.0 
0.129558 -0.0374904 0.0 
0.38331 -0.111599 0.0 
0.931287 -0.274915 0.0 
0.770814 -0.196646 0.0 
0.401008 -0.116438 0.0 
0.951916 -0.234763 0.0 
1.0013 -0.276685 0.0 
0.725667 -0.153297 0.0 
0.473072 -0.135736 0.0 
0.94838 -0.286021 0.0 
0.814915 -0.236869 0.0 
0.116989 -0.0322788 0.0 
0.975099 -0.283466 0.0 
0.827483 -0.249246 0.0 
1.02307 -0.268226 0.0 
0.474211 -0.135993 0.0 
0 0 0.0 
0.986735 -0.280524 0.0 
1.01675 -0.26183 0.0 
0.867172 -0.22822 0.0 
0.798953 -0.280102 0.0 
0.90519 -0.227287 0.0 
0.524492 -0.105501 0.0 
0.942305 -0.135526 0.0 
0.744086 -0.174144 0.0 
0.818216 -0.224211 0.0 
0.767064 -0.225239 0.0 
0.526154 -0.1623 0.0 
0.797583 -0.25722 0.0 
0.776558 -0.356673 0.0 
0.168733 -0.0308417 0.0 
0.634593 -0.177387 0.0 
0.372108 -0.107263 0.0 
0.828741 -0.243552 0.0 
0.751363 -0.256031 0.0 
0.945154 -0.293196 0.0 
0.119054 -0.0328083 0.0 
0.771348 -0.237 0.0 
0.736028 -0.203726 0.0 
0.483899 -0.161239 0.0 
0.696511 -0.199981 0.0 
0.341418 -0.0907569 0.0 
0.503902 -0.148203 0.0 
0.921829 -0.268748 0.0 
0.815977 -0.228258 0.0 
0.940257 -0.121228 0.0 
0.316414 -0.111282 0.0 
0.502331 -0.143803 0.0 
0.991685 -0.274714 0.0 
0.796028 -0.221968 0.0 
0.878096 -0.320015 0.0 
0.804434 -0.370875 0.0 
0 0 0.0 
0.708485 -0.220936 0.0 
0.833737 -0.224316 0.0 
0.914864 -0.215603 0.0 
0.704429 -0.189872 0.0 
0.610624 -0.172464 0.0 
0.206965 -0.062054 0.0 
0.147968 -0.0426483 0.0 
0.838989 -0.351225 0.0 
0.680903 -0.192197 0.0 
0.847082 -0.216397 0.0 
0.856981 -0.181525 0.0 
0.958211 -0.283885 0.0 
0.919524 -0.249822 0.0 
0.888115 -0.320612 0.0 
0.118178 -0.0353975 0.0 
0.119079 -0.0339501 0.0 
0.841517 -0.155933 0.0 
0.370224 -0.1077 0.0 
0.843574 -0.233246 0.0 
0.811029 -0.255887 0.0 
0.795692 -0.194132 0.0 
0.211243 -0.0608955 0.0 
0.454008 -0.130593 0.0 
0.931218 -0.285806 0.0 
0.771474 -0.210522 0.0 
0.951226 -0.213144 0.0 
0.184709 -0.0538617 0.0 
0.898831 -0.255942 0.0 
0.540895 -0.226593 0.0 
0.541561 -0.154815 0.0 
0 0 0.0 
0.886155 -0.277292 0.0 
0.859978 -0.250321 0.0 
0.733819 -0.318047 0.0 
0.5782 -0.207203 0.0 
0.77811 -0.218901 0.0 
0.695219 -0.229483 0.0 
1.00683 -0.276579 0.0 
0.829443 -0.251415 0.0 
0.845462 -0.210101 0.0 
0.477931 -0.137109 0.0 
0.389855 -0.123255 0.0 
0.719906 -0.159224 0.0 
0.928052 -0.279675 0.0 
0.923507 -0.259957 0.0 
0.826099 -0.146654 0.0 
0.708983 -0.196656 0.0 
0.355836 -0.0783351 0.0 
0.747778 -0.221788 0.0 
0.899944 -0.157941 0.0 
0.917982 -0.314312 0.0 
0.552031 -0.158684 0.0 
0.84004 -0.282473 0.0 
0.959964 -0.256604 0.0 
0 0 0.0 
0.519958 -0.149771 0.0 
0.26631 -0.0784261 0.0 
1.03281 -0.268951 0.0 
0.877255 -0.260997 0.0 
0.581555 -0.23455 0.0 
0.997138 -0.267266 0.0 
0.888471 -0.30926 0.0 
0.642804 -0.182698 0.0 
0 0 0.0 
0.840766 -0.176833 0.0 
0.961653 -0.2638 0.0 
0.824633 -0.258348 0.0 
0.149823 -0.0460925 0.0 
0.825361 -0.356689 0.0 
0.89539 -0.309231 0.0 
0.355909 -0.133 0.0 
0.94399 -0.26178 0.0 
0 0 0.0 
0.94763 -0.229738 0.0 
0.855574 -0.243618 0.0 
0.472847 -0.101992 0.0 
0 0 0.0 
0.857397 -0.352807 0.0 
0.964582 -0.289057 0.0 
0.982286 -0.200642 0.0 
1.06312 -0.253089 0.0 
0 0 0.0 
0.130997 -0.0377247 0.0 
0.12185 -0.0356763 0.0 
0.752515 -0.199328 0.0 
0.875291 -0.304743 0.0 
0.841267 -0.202948 0.0 
0.842478 -0.137418 0.0 
0.881307 -0.161845 0.0 
0.416487 -0.106269 0.0 
0.939092 -0.294881 0.0 
0 0 0.0 
0.465729 -0.139818 0.0 
0.834063 -0.229561 0.0 
0.866166 -0.260721 0.0 
0.159478 -0.0479278 0.0 
0.893223 -0.326017 0.0 
0.597804 -0.170617 0.0 
0.407482 -0.0736972 0.0 
0.407843 -0.117884 0.0 
0.822161 -0.176821 0.0 
0.833606 -0.210997 0.0 
0.367235 -0.0732292 0.0 
0.226102 -0.0641306 0.0 
0.983611 -0.268493 0.0 
0.997124 -0.26264 0.0 
0.872314 -0.226249 0.0 
0.941497 -0.169232 0.0 
0.630871 -0.180778 0.0 
0.295954 -0.0849881 0.0 
0.521261 -0.149333 0.0 
1.0063 -0.273713 0.0 
0.881811 -0.238323 0.0 
0.68641 -0.201573 0.0 
0 0 0.0 
0.930567 -0.260608 0.0 
0.811499 -0.231947 0.0 
0.931744 -0.30581 0.0 
0.572526 -0.157276 0.0 
0.855492 -0.336704 0.0 
0.897194 -0.315299 0.0 
0.843984 -0.255781 0.0 
0 0 0.0 
0.0915643 -0.0272719 0.0 
0.551703 -0.157358 0.0 
0.436544 -0.17167 0.0 
0 0 0.0 
0.909812 -0.26645 0.0 
0.911046 -0.22952 0.0 
0.958003 -0.278194 0.0 
0.794653 -0.212224 0.0 
0 0 0.0 
0.204916 -0.0788199 0.0 
0.107064 -0.032267 0.0 
0.745728 -0.231843 0.0 
0.418178 -0.176639 0.0 
0.817023 -0.180121 0.0 
1.01135 -0.27512 0.0 
0.890648 -0.263631 0.0 
0.89444 -0.130917 0.0 
0.860924 -0.258643 0.0 
0.887084 -0.284632 0.0 
0.9757 -0.277141 0.0 
0.196458 -0.0569212 0.0 
0.936976 -0.242025 0.0 
0.615711 -0.174978 0.0 
0.311324 -0.0888844 0.0 
0.859298 -0.300673 0.0 
0.954246 -0.288428 0.0 
0.812732 -0.160792 0.0 
0.604702 -0.17924 0.0 
0.893142 -0.246122 0.0 
0.355284 -0.101849 0.0 
0 0 0.0 
0.193092 -0.0431008 0.0 
0.975144 -0.27316 0.0 
0.135418 -0.0415671 0.0 
0.868097 -0.27394 0.0 
0.903084 -0.219323 0.0 
0.606776 -0.181536 0.0 
0.914592 -0.256327 0.0 
1.02068 -0.25592 0.0 
0.739474 -0.21036 0.0 
0 0 0.0 
1.07167 -0.255793 0.0 
0.264798 -0.0442156 0.0 
0.134496 -0.0392852 0.0 
0.788794 -0.203658 0.0 
0.150904 -0.0466711 0.0 
0.908838 -0.316102 0.0 
0.957504 -0.239407 0.0 
0.656193 -0.18376 0.0 
0.372563 -0.149349 0.0 
0.267878 -0.113886 0.0 
0.961319 -0.24349 0.0 
0.807665 -0.341079 0.0 
0.844639 -0.201062 0.0 
1.05771 -0.263083 0.0 
0.176942 -0.0513812 0.0 
0 0 0.0 
0.892959 -0.252977 0.0 
0.433998 -0.124764 0.0 
0.66221 -0.190332 0.0 
0.813475 -0.269807 0.0 
0.856108 -0.351896 0.0 
0 0 0.0 
0.665864 -0.174514 0.0 
0.714116 -0.186864 0.0 
0.945428 -0.282668 0.0 
0.474392 -0.117381 0.0 
1.04525 -0.252389 0.0 
0 0 0.0 
0.956037 -0.270208 0.0 
0.80928 -0.211112 0.0 
0.401936 -0.116057 0.0 
0.242174 -0.0713854 0.0 
0.696941 -0.201924 0.0 
0.839771 -0.245605 0.0 
0 0 0.0 
0.31666 -0.09032 0.0 
0 0 0.0 
0.110094 -0.0327504 0.0 
0.489164 -0.219341 0.0 
0.759997 -0.220613 0.0 
0.795469 -0.239965 0.0 
0.917112 -0.314476 0.0 
0.127346 -0.0366991 0.0 
0.872268 -0.247312 0.0 
0.887346 -0.250406 0.0 
0.6765 -0.187123 0.0 
0.970395 -0.262875 0.0 
0.253809 -0.0729552 0.0 
1.01695 -0.239649 0.0 
1.05613 -0.258002 0.0 
0.491376 -0.128206 0.0 
0.781294 -0.32146 0.0 
0.563242 -0.247024 0.0 
0 0 0.0 
0.790261 -0.250722 0.0 
0.796009 -0.186355 0.0 
0.136252 -0.0375435 0.0 
1.01103 -0.267884 0.0 
0.921878 -0.298504 0.0 
0.320932 -0.0910204 0.0 
0.98113 -0.282636 0.0 
0.107245 -0.0310304 0.0 
0.448815 -0.129145 0.0 
0.361075 -0.103357 0.0 
0 0 0.0 
0.719484 -0.198373 0.0 
0.97472 -0.268656 0.0 
0.55501 -0.157496 0.0 
0.109775 -0.03356 0.0 
0.29537 -0.0878225 0.0 
0.964449 -0.247327 0.0 
0.421773 -0.121297 0.0 
0.635467 -0.137841 0.0 
0.156902 -0.0395419 0.0 
0.972276 -0.285798 0.0 
0.901898 -0.325495 0.0 
0 0 0.0 
0.814496 -0.374267 0.0 
0.84749 -0.311099 0.0 
0.857866 -0.147494 0.0 
0.63647 -0.170939 0.0 
0.635722 -0.196111 0.0 
0.758101 -0.18289 0.0 
0.978818 -0.263392 0.0 
0.137645 -0.0409067 0.0 
0.732525 -0.193438 0.0 
0.375572 -0.0873289 0.0 
0.837105 -0.359828 0.0 
0.749338 -0.213973 0.0 
0.953561 -0.257559 0.0 
0.953074 -0.215811 0.0 
0.909464 -0.319771 0.0 
0.523221 -0.15285 0.0 
0.990757 -0.274727 0.0 
0.963478 -0.203467 0.0 
0.869946 -0.345715 0.0 
0.826889 -0.269271 0.0 
0 0 0.0 
0 0 0.0 
0.759543 -0.340659 0.0 
0 0 0.0 
0.654166 -0.276425 0.0 
0.989514 -0.276397 0.0 
0.752749 -0.243275 0.0 
0.93142 -0.303769 0.0 
0 0 0.0 
0.883405 -0.224266 0.0 
0.843595 -0.244441 0.0 
0.812087 -0.280948 0.0 
0.204236 -0.0724767 0.0 
0.907106 -0.311033 0.0 
0.769461 -0.213054 0.0 
0.890256 -0.265061 0.0 
0.988919 -0.23839 0.0 
0.907828 -0.28811 0.0 
0.56369 -0.158806 0.0 
0.10398 -0.028978 0.0 
0.283745 -0.0843483 0.0 
0.23069 -0.0671729 0.0 
0.403707 -0.0771035 0.0 
0.343997 -0.0997653 0.0 
0.849071 -0.358957 0.0 
0.882603 -0.27523 0.0 
0.909997 -0.314048 0.0 
0.948828 -0.294794 0.0 
0.105116 -0.0311672 0.0 
0.461283 -0.135185 0.0 
0.972474 -0.283091 0.0 
0.838753 -0.336056 0.0 
0.893787 -0.283902 0.0 
0.0822747 -0.0221549 0.0 
0 0 0.0 
0.974753 -0.270998 0.0 
0 0 0.0 
0.833494 -0.32194 0.0 
0 0 0.0 
1.01982 -0.272968 0.0 
0 0 0.0 
0.848025 -0.240412 0.0 
0 0 0.0 
0.926449 -0.307461 0.0 
0.941755 -0.299791 0.0 
0.566173 -0.169737 0.0 
0.855211 -0.348488 0.0 
0.960678 -0.156186 0.0 
0.923061 -0.275777 0.0 
1.02333 -0.272964 0.0 
0.928979 -0.116069 0.0 
0.855817 -0.237622 0.0 
0.133701 -0.0406098 0.0 
0.434555 -0.132123 0.0 
0.920023 -0.149807 0.0 
0.830449 -0.213737 0.0 
0.575172 -0.199765 0.0 
0.0865533 -0.0254187 0.0 
0.946724 -0.203265 0.0 
0.928994 -0.296336 0.0 
0.622351 -0.157821 0.0 
0.718824 -0.179678 0.0 
0.701661 -0.196444 0.0 
0.864192 -0.218389 0.0 
0.821132 -0.235811 0.0 
0.938213 -0.276554 0.0 
0.623784 -0.243894 0.0 
0.38571 -0.110051 0.0 
0.872359 -0.210535 0.0 
0.929801 -0.129341 0.0 
0.666118 -0.189165 0.0 
0.95077 -0.125949 0.0 
0.810454 -0.24201 0.0 
0.868054 -0.241878 0.0 
1.04253 -0.264175 0.0 
0.981598 -0.281743 0.0 
0.83373 -0.30513 0.0 
0 0 0.0 
0.310805 -0.0899188 0.0 
0.91246 -0.247324 0.0 
0.958479 -0.143605 0.0 
0.812766 -0.348746 0.0 
1.04313 -0.255873 0.0 
0.0956144 -0.0273906 0.0 
0.614193 -0.177993 0.0 
0.824109 -0.216872 0.0 
0.594037 -0.172965 0.0 
0.97594 -0.27865 0.0 
0 0 0.0 
0.770093 -0.205135 0.0 
0.975065 -0.178394 0.0 
1.00205 -0.228579 0.0 
0.474086 -0.134179 0.0 
0.991716 -0.280161 0.0 
0.783778 -0.221314 0.0 
0 0 0.0 
0 0 0.0 
0.95532 -0.279812 0.0 
0.870247 -0.119669 0.0 
0 0 0.0 
0.909638 -0.154829 0.0 
0.672208 -0.297456 0.0 
0.90559 -0.211106 0.0 
0.907667 -0.130432 0.0 
0.923064 -0.232467 0.0 
0.997585 -0.269558 0.0 
0.331528 -0.0961181 0.0 
0.938644 -0.226072 0.0 
0.92331 -0.303425 0.0 
1.03899 -0.266769 0.0 
0.793248 -0.224889 0.0 
0.662613 -0.20211 0.0 
0.796234 -0.28228 0.0 
0.838669 -0.260391 0.0 
0.761991 -0.250236 0.0 
0.749442 -0.278635 0.0 
0.953569 -0.267729 0.0 
0.854598 -0.218005 0.0 
0.911436 -0.264333 0.0 
0.496644 -0.137935 0.0 
0.898114 -0.143904 0.0 
0.784369 -0.22668 0.0 
0.693347 -0.218166 0.0 
0.924252 -0.307879 0.0 
0.959544 -0.274628 0.0 
0.277293 -0.0500348 0.0 
0.342715 -0.0934972 0.0 
0.975683 -0.284663 0.0 
0.970691 -0.113521 0.0 
0.864548 -0.34498 0.0 
0.819086 -0.332014 0.0 
0.933298 -0.205185 0.0 
0.873062 -0.314015 0.0 
0.301026 -0.0866372 0.0 
0.879177 -0.284906 0.0 
0.790469 -0.297205 0.0 
0.787266 -0.196301 0.0 
0.426531 -0.124634 0.0 
0.957735 -0.260582 0.0 
0.77408 -0.240356 0.0 
0.712238 -0.201494 0.0 
0.812178 -0.320623 0.0 
0.650426 -0.152331 0.0 
0.540567 -0.10332 0.0 
0.441567 -0.126797 0.0 
0.784437 -0.300803 0.0 
0.752474 -0.204482 0.0 
0.953963 -0.292406 0.0 
0.849022 -0.356534 0.0 
0.352705 -0.102665 0.0 
0.968845 -0.134604 0.0 
0.901092 -0.302632 0.0 
0.854699 -0.297559 0.0 
0.445617 -0.127475 0.0 
0.216995 -0.0642515 0.0 
0.721198 -0.183721 0.0 
0.171727 -0.050928 0.0 
0.873238 -0.339175 0.0 
0.830741 -0.190429 0.0 
0.850343 -0.320538 0.0 
0.828072 -0.351204 0.0 
0.885817 -0.335164 0.0 
0.217883 -0.0609676 0.0 
0.509888 -0.114458 0.0 
0.725922 -0.289589 0.0 
0.396136 -0.117101 0.0 
0.122735 -0.0345009 0.0 
0.866031 -0.273139 0.0 
0.648561 -0.225534 0.0 
0.883692 -0.112726 0.0 
0.356044 -0.101592 0.0 
0.848727 -0.325303 0.0 
0.987983 -0.278038 0.0 
0.809878 -0.147881 0.0 
0.89578 -0.329545 0.0 
0.959673 -0.286225 0.0 
0.180504 -0.0498804 0.0 
0.956978 -0.13319 0.0 
0.824023 -0.225991 0.0 
0.119797 -0.0194312 0.0 
0.995256 -0.250783 0.0 
0.868248 -0.177135 0.0 
0.304849 -0.0894651 0.0 
0.994224 -0.246996 0.0 
0 0 0.0 
0.622552 -0.17697 0.0 
0.893857 -0.329558 0.0 
0.882169 -0.332099 0.0 
0.106965 -0.0290686 0.0 
0.668814 -0.183043 0.0 
0.854197 -0.165515 0.0 
0.84638 -0.335154 0.0 
0.993391 -0.2793 0.0 
0.548691 -0.161595 0.0 
0.577832 -0.17632 0.0 
0.335322 -0.0955103 0.0 
0.996786 -0.26017 0.0 
0.706658 -0.246627 0.0 
0.862392 -0.319045 0.0 
0.522413 -0.155716 0.0 
0.709894 -0.266476 0.0 
0 0 0.0 
0.83368 -0.269431 0.0 
0.879448 -0.25521 0.0 
0.748791 -0.210294 0.0 
0.83637 -0.300937 0.0 
0.540531 -0.154239 0.0 
0.852165 -0.192766 0.0 
0.915826 -0.310743 0.0 
0.841058 -0.191515 0.0 
0.955421 -0.290373 0.0 
0.453312 -0.129929 0.0 
0.996071 -0.222896 0.0 
0.965544 -0.283206 0.0 
0.879198 -0.257041 0.0 
0 0 0.0 
0.635685 -0.291878 0.0 
0.285196 -0.0880019 0.0 
0.803966 -0.303826 0.0 
0 0 0.0 
0.885385 -0.139925 0.0 
0.320884 -0.0912609 0.0 
0.885115 -0.199483 0.0 
0.56255 -0.147124 0.0 
0.374226 -0.107031 0.0 
0.259123 -0.073066 0.0 
0.729727 -0.206901 0.0 
0.649087 -0.18124 0.0 
0.91783 -0.274336 0.0 
0.968245 -0.285158 0.0 
0.379158 -0.108823 0.0 
0.619909 -0.175577 0.0 
0.278543 -0.082731 0.0 
0.971965 -0.226836 0.0 
0.330986 -0.097213 0.0 
1.02387 -0.244885 0.0 
0.878056 -0.340743 0.0 
0.823095 -0.335811 0.0 
0.863042 -0.246949 0.0 
0.557168 -0.159184 0.0 
0.139376 -0.0386268 0.0 
0.0981468 -0.0273943 0.0 
0.369401 -0.107372 0.0 
0.557617 -0.116872 0.0 
0.759904 -0.217764 0.0 
0.148173 -0.0405067 0.0 
0.949105 -0.295896 0.0 
0.881082 -0.185417 0.0 
0.638975 -0.143907 0.0 
0.731491 -0.220987 0.0 
0 0 0.0 
0.191265 -0.0531728 0.0 
0 0 0.0 
0.839636 -0.237013 0.0 
0.992414 -0.242936 0.0 
0.68815 -0.196937 0.0 
0.21068 -0.0620742 0.0 
1.02299 -0.248769 0.0 
0.807673 -0.177263 0.0 
0.809152 -0.239656 0.0 
0 0 0.0 
0.567998 -0.162969 0.0 
0.74278 -0.216231 0.0 
0.457642 -0.131738 0.0 
0.923308 -0.23802 0.0 
0.946081 -0.296112 0.0 
0.869639 -0.333532 0.0 
0.941802 -0.297634 0.0 
0.754018 -0.293998 0.0 
0.216938 -0.0572734 0.0 
0.303889 -0.0875292 0.0 
1.03348 -0.269976 0.0 
0.911835 -0.281353 0.0 
0.825013 -0.364408 0.0 
0.772017 -0.247052 0.0 
0.978537 -0.258186 0.0 
1.00206 -0.275001 0.0 
0.800882 -0.356355 0.0 
0.89473 -0.237702 0.0 
0.942957 -0.249857 0.0 
0.754979 -0.222929 0.0 
0.565455 -0.150517 0.0 
0.694354 -0.223266 0.0 
0.66626 -0.210154 0.0 
0 0 0.0 
0.382782 -0.1344 0.0 
0.833352 -0.285075 0.0 
0.798948 -0.267719 0.0 
0.295393 -0.0858742 0.0 
0.533209 -0.150555 0.0 
0.2515 -0.0746125 0.0 
0.446427 -0.128651 0.0 
0.9699 -0.281576 0.0 
0.843469 -0.249839 0.0 
0.676493 -0.192931 0.0 
0.25634 -0.0753187 0.0 
0.224592 -0.065197 0.0 
0.525396 -0.150422 0.0 
0.465616 -0.125436 0.0 
0.254964 -0.0730669 0.0 
0.820814 -0.301293 0.0 
0.171285 -0.0522132 0.0 
0.938299 -0.298652 0.0 
0.939581 -0.272813 0.0 
0.406671 -0.117985 0.0 
0.845842 -0.256977 0.0 
0.354529 -0.101352 0.0 
0.692285 -0.20893 0.0 
0.725667 -0.197413 0.0 
0.243257 -0.0696336 0.0 
0 0 0.0 
0 0 0.0 
0.244817 -0.0703364 0.0 
0.870189 -0.250259 0.0 
0 0 0.0 
0.931725 -0.143056 0.0 
0.246119 -0.0730435 0.0 
0.902038 -0.249537 0.0 
0.90803 -0.308293 0.0 
0.557536 -0.134858 0.0 
0.164902 -0.0458987 0.0 
0.889724 -0.29197 0.0 
0.195039 -0.0553437 0.0 
0.875517 -0.245164 0.0 
0.129208 -0.0388491 0.0 
0.826267 -0.192597 0.0 
0.9536 -0.252535 0.0 
0.893319 -0.293792 0.0 
0.557743 -0.157659 0.0 
0.907764 -0.29194 0.0 
0.864802 -0.284079 0.0 
0.783755 -0.234375 0.0 
0.997469 -0.277616 0.0 
0.975461 -0.275194 0.0 
0.891168 -0.197093 0.0 
0.895025 -0.238425 0.0 
0.990634 -0.218423 0.0 
0.236567 -0.0667276 0.0 
0.561938 -0.140359 0.0 
0.116877 -0.0352595 0.0 
0.359526 -0.104324 0.0 
0.315758 -0.0921502 0.0 
0.458932 -0.132894 0.0 
0.938076 -0.284638 0.0 
0.920381 -0.206253 0.0 
0.286188 -0.0809051 0.0 
0.609228 -0.174681 0.0 
0.896195 -0.207396 0.0 
0.996375 -0.257289 0.0 
0.454002 -0.0941196 0.0 
0.886327 -0.274368 0.0 
0.947069 -0.288117 0.0 
0.736008 -0.167023 0.0 
0.289253 -0.0947149 0.0 