<VTKFile type="UnstructuredGrid" version="0.1" byte_order="LittleEndian">
  <UnstructuredGrid>
    <Piece NumberOfPoints="14332" NumberOfCells="27993">
      <Points>
        <DataArray type = "Float64" NumberOfComponents="3" format="ascii">
1.21591 0.984364 0.0 
1.14383 0.978487 0.0 
1.15396 0.980152 0.0 
1.12951 0.965387 0.0 
1.18632 0.995779 0.0 
1.16598 0.967793 0.0 
1.20073 0.995227 0.0 
1.15147 0.968847 0.0 
1.14824 0.981705 0.0 
1.12695 0.974928 0.0 
1.2051 0.990308 0.0 
1.18271 0.983668 0.0 
1.153 0.981045 0.0 
1.17931 0.971406 0.0 
1.1992 0.991286 0.0 
1.18694 0.993642 0.0 
1.194 0.990928 0.0 
1.20295 0.982865 0.0 
1.20075 0.98314 0.0 
1.16548 0.988069 0.0 
1.16336 0.97963 0.0 
1.18877 0.984904 0.0 
1.19629 0.993111 0.0 
1.16223 0.983191 0.0 
1.23229 0.97492 0.0 
1.19065 0.982602 0.0 
1.16345 0.971384 0.0 
1.18929 0.989833 0.0 
1.16142 0.977361 0.0 
1.16105 0.972765 0.0 
1.20992 0.988323 0.0 
1.16016 0.967486 0.0 
1.21233 0.983663 0.0 
1.19333 0.984149 0.0 
1.15762 0.978638 0.0 
1.1603 0.983934 0.0 
1.15549 0.970233 0.0 
1.14907 0.979898 0.0 
1.14847 0.981148 0.0 
1.16171 0.979997 0.0 
1.14947 0.968723 0.0 
1.15007 0.979249 0.0 
1.15145 0.978352 0.0 
1.15063 0.979027 0.0 
1.13217 0.96917 0.0 
1.1939 0.976015 0.0 
1.1888 0.980943 0.0 
1.20194 0.98198 0.0 
1.12754 0.974518 0.0 
1.16519 0.981145 0.0 
1.16463 0.987323 0.0 
1.17798 0.983237 0.0 
1.17741 0.977037 0.0 
1.19335 0.979966 0.0 
1.15476 0.979189 0.0 
1.15894 0.975919 0.0 
1.15438 0.97523 0.0 
1.18808 0.981779 0.0 
1.15294 0.981833 0.0 
1.16711 0.981615 0.0 
1.16827 0.976707 0.0 
1.20768 0.99346 0.0 
1.16334 0.972386 0.0 
1.15709 0.972934 0.0 
1.16044 0.979903 0.0 
1.14424 0.970971 0.0 
1.14459 0.971986 0.0 
1.15911 0.974608 0.0 
1.19612 0.975254 0.0 
1.131 0.971299 0.0 
1.20922 0.982889 0.0 
1.163 0.968216 0.0 
1.18354 0.984385 0.0 
1.18095 0.985229 0.0 
1.20912 0.984102 0.0 
1.17286 0.980529 0.0 
1.18974 0.998714 0.0 
1.16075 0.983232 0.0 
1.19661 0.984507 0.0 
1.18131 0.990984 0.0 
1.15922 0.979579 0.0 
1.13152 0.969923 0.0 
1.21322 0.979541 0.0 
1.15476 0.976819 0.0 
1.21345 0.982711 0.0 
1.1396 0.962292 0.0 
1.15282 0.972077 0.0 
1.16643 0.976053 0.0 
1.21874 0.981893 0.0 
1.11463 0.959221 0.0 
1.16587 0.987537 0.0 
1.15093 0.96778 0.0 
1.2039 0.987293 0.0 
1.15278 0.977448 0.0 
1.14128 0.972592 0.0 
1.15323 0.969514 0.0 
1.12887 0.966371 0.0 
1.20145 0.993782 0.0 
1.1337 0.96282 0.0 
1.18007 0.980865 0.0 
1.16448 0.980055 0.0 
1.16277 0.978786 0.0 
1.16957 0.960844 0.0 
1.18291 0.978242 0.0 
1.16686 0.980865 0.0 
1.15065 0.979866 0.0 
1.16268 0.980706 0.0 
1.20206 0.987579 0.0 
1.15385 0.97575 0.0 
1.19217 0.990813 0.0 
1.15192 0.975286 0.0 
1.14427 0.973982 0.0 
1.18201 0.984147 0.0 
1.16191 0.981309 0.0 
1.15479 0.980396 0.0 
1.15316 0.975202 0.0 
1.18153 0.994939 0.0 
1.19557 0.978565 0.0 
1.13746 0.96267 0.0 
1.14818 0.967134 0.0 
1.20152 0.976556 0.0 
1.13866 0.961411 0.0 
1.17046 0.982536 0.0 
1.19015 0.976416 0.0 
1.14913 0.980592 0.0 
1.19648 0.983462 0.0 
1.13902 0.977884 0.0 
1.20536 0.987099 0.0 
1.14651 0.978015 0.0 
1.17897 0.980193 0.0 
1.15243 0.978971 0.0 
1.18825 0.983389 0.0 
1.18227 0.970194 0.0 
1.16628 0.97205 0.0 
1.22396 0.966118 0.0 
1.20017 0.987617 0.0 
1.15245 0.970486 0.0 
1.19045 0.993601 0.0 
1.19395 0.983736 0.0 
1.23085 0.967036 0.0 
1.16416 0.987543 0.0 
1.17175 0.963426 0.0 
1.15174 0.980674 0.0 
1.13531 0.965357 0.0 
1.18371 0.980668 0.0 
1.16101 0.981674 0.0 
1.1818 0.982593 0.0 
1.19825 0.983505 0.0 
1.15602 0.968216 0.0 
1.1868 0.99442 0.0 
1.15333 0.978527 0.0 
1.20791 0.985756 0.0 
1.16328 0.969322 0.0 
1.16068 0.978719 0.0 
1.12423 0.975296 0.0 
1.20704 0.978029 0.0 
1.1533 0.973613 0.0 
1.18279 0.979794 0.0 
1.17885 0.982842 0.0 
1.15307 0.980269 0.0 
1.1987 0.977956 0.0 
1.15499 0.982713 0.0 
1.17591 0.987886 0.0 
1.14225 0.970108 0.0 
1.18565 0.983339 0.0 
1.17194 0.969072 0.0 
1.19947 0.963422 0.0 
1.15855 0.984561 0.0 
1.17672 0.980206 0.0 
1.23788 0.968059 0.0 
1.19676 0.985903 0.0 
1.16085 0.97675 0.0 
1.17577 0.981784 0.0 
1.20797 0.989645 0.0 
1.20413 0.964322 0.0 
1.13009 0.966005 0.0 
1.17465 0.980486 0.0 
1.23638 0.969028 0.0 
1.12373 0.973261 0.0 
1.19246 0.985199 0.0 
1.13518 0.96469 0.0 
1.21041 0.965006 0.0 
1.14889 0.973613 0.0 
1.16373 0.974012 0.0 
1.1394 0.9725 0.0 
1.19669 0.985131 0.0 
1.22006 0.984564 0.0 
1.19853 0.992565 0.0 
1.1336 0.965028 0.0 
1.19176 0.980542 0.0 
1.16855 0.981125 0.0 
1.17377 0.961476 0.0 
1.18556 0.983892 0.0 
1.16252 0.976863 0.0 
1.17124 0.989901 0.0 
1.20462 0.988748 0.0 
1.15393 0.981497 0.0 
1.15885 0.972464 0.0 
1.21077 0.983326 0.0 
1.17064 0.976962 0.0 
1.15884 0.98192 0.0 
1.14341 0.963224 0.0 
1.15607 0.983603 0.0 
1.15123 0.973391 0.0 
1.21219 0.983126 0.0 
1.14615 0.977118 0.0 
1.2116 0.980294 0.0 
1.14979 0.981501 0.0 
1.15716 0.974998 0.0 
1.16215 0.982216 0.0 
1.1843 0.98786 0.0 
1.23102 0.968225 0.0 
1.1552 0.977577 0.0 
1.20835 0.973586 0.0 
1.20218 0.996214 0.0 
1.15131 0.982749 0.0 
1.21205 0.981814 0.0 
1.14817 0.972342 0.0 
1.11371 0.959908 0.0 
1.20448 0.985039 0.0 
1.16463 0.986327 0.0 
1.13761 0.978444 0.0 
1.20663 0.988582 0.0 
1.16154 0.974336 0.0 
1.1544 0.978658 0.0 
1.1928 0.983589 0.0 
1.18821 0.997416 0.0 
1.17826 0.982217 0.0 
1.18738 0.982888 0.0 
1.14978 0.982223 0.0 
1.17016 0.979369 0.0 
1.14136 0.971312 0.0 
1.19965 0.983248 0.0 
1.17403 0.984764 0.0 
1.1602 0.976116 0.0 
1.15428 0.980779 0.0 
1.20703 0.983455 0.0 
1.16556 0.982993 0.0 
1.16947 0.980863 0.0 
1.15502 0.974633 0.0 
1.155 0.98109 0.0 
1.17387 0.98235 0.0 
1.20393 0.991893 0.0 
1.18797 0.994661 0.0 
1.21483 0.980541 0.0 
1.13852 0.966885 0.0 
1.19336 0.988895 0.0 
1.18858 0.975713 0.0 
1.15251 0.983169 0.0 
1.14185 0.973271 0.0 
1.16397 0.981064 0.0 
1.14279 0.970783 0.0 
1.16306 0.974759 0.0 
1.19047 0.9926 0.0 
1.15279 0.982636 0.0 
1.14433 0.970162 0.0 
1.18627 0.982411 0.0 
1.1889 0.992323 0.0 
1.18159 0.99423 0.0 
1.20005 0.975033 0.0 
1.2396 0.977731 0.0 
1.1778 0.976291 0.0 
1.18473 0.987037 0.0 
1.20047 0.993164 0.0 
1.18359 0.97564 0.0 
1.15106 0.976577 0.0 
1.19878 0.975888 0.0 
1.19564 0.983738 0.0 
1.17873 0.964624 0.0 
1.15978 0.984547 0.0 
1.16654 0.987051 0.0 
1.14105 0.976526 0.0 
1.19818 0.990992 0.0 
1.21457 0.982059 0.0 
1.12678 0.97539 0.0 
1.14252 0.977838 0.0 
1.16414 0.978881 0.0 
1.1536 0.982862 0.0 
1.18538 0.995481 0.0 
1.20806 0.988037 0.0 
1.18951 0.994332 0.0 
1.111 0.963039 0.0 
1.21709 0.966084 0.0 
1.14881 0.976525 0.0 
1.16348 0.976201 0.0 
1.15874 0.980019 0.0 
1.19932 0.995103 0.0 
1.15599 0.980007 0.0 
1.14337 0.974659 0.0 
1.229 0.983011 0.0 
1.18881 0.997043 0.0 
1.15387 0.977949 0.0 
1.20764 0.983021 0.0 
1.16495 0.975705 0.0 
1.15357 0.962972 0.0 
1.19657 0.98293 0.0 
1.13325 0.965656 0.0 
1.1917 0.981415 0.0 
1.16182 0.975117 0.0 
1.17952 0.990057 0.0 
1.15094 0.981644 0.0 
1.19215 0.984301 0.0 
1.19195 0.993452 0.0 
1.23225 0.970751 0.0 
1.11177 0.962369 0.0 
1.20174 0.994619 0.0 
1.23642 0.976993 0.0 
1.16669 0.978669 0.0 
1.15309 0.983372 0.0 
1.2004 0.994465 0.0 
1.15583 0.976939 0.0 
1.15291 0.961137 0.0 
1.1722 0.98107 0.0 
1.16534 0.977346 0.0 
1.14317 0.977275 0.0 
1.19221 0.996003 0.0 
1.17223 0.977734 0.0 
1.17177 0.979482 0.0 
1.17401 0.977313 0.0 
1.13201 0.966196 0.0 
1.14439 0.975353 0.0 
1.15231 0.980537 0.0 
1.15108 0.979517 0.0 
1.20608 0.982618 0.0 
1.193 0.984799 0.0 
1.18801 0.977731 0.0 
1.15226 0.982196 0.0 
1.19848 0.98437 0.0 
1.18308 0.993527 0.0 
1.19106 0.984274 0.0 
1.19497 0.983556 0.0 
1.1266 0.975763 0.0 
1.1704 0.981391 0.0 
1.15654 0.98062 0.0 
1.15788 0.980051 0.0 
1.14459 0.977393 0.0 
1.16804 0.979198 0.0 
1.18426 0.995334 0.0 
1.14734 0.966265 0.0 
1.19475 0.984095 0.0 
1.20999 0.989571 0.0 
1.15964 0.980073 0.0 
1.14884 0.981903 0.0 
1.14181 0.975909 0.0 
1.19247 0.983967 0.0 
1.21493 0.983954 0.0 
1.18619 0.978135 0.0 
1.15993 0.985893 0.0 
1.1564 0.97559 0.0 
1.18323 0.974349 0.0 
1.15673 0.97906 0.0 
1.19016 0.985264 0.0 
1.14655 0.973896 0.0 
1.12627 0.973838 0.0 
1.19312 0.986382 0.0 
1.19278 0.983071 0.0 
1.18611 0.981146 0.0 
1.208 0.985032 0.0 
1.15912 0.973181 0.0 
1.13459 0.964081 0.0 
1.18616 0.981872 0.0 
1.14685 0.963328 0.0 
1.1906 0.983456 0.0 
1.18337 0.990151 0.0 
1.19244 0.972564 0.0 
1.13004 0.973795 0.0 
1.21052 0.970069 0.0 
1.16097 0.982464 0.0 
1.12345 0.974582 0.0 
1.16082 0.985698 0.0 
1.1986 0.987258 0.0 
1.14518 0.966032 0.0 
1.18884 0.983908 0.0 
1.16829 0.977439 0.0 
1.15509 0.972322 0.0 
1.19969 0.979203 0.0 
1.18312 0.988176 0.0 
1.17637 0.98274 0.0 
1.14217 0.974025 0.0 
1.19608 0.974292 0.0 
1.19501 0.982455 0.0 
1.18488 0.979049 0.0 
1.19824 0.991802 0.0 
1.13285 0.964473 0.0 
1.19254 0.967589 0.0 
1.12481 0.974125 0.0 
1.21715 0.984468 0.0 
1.19393 0.983293 0.0 
1.1775 0.991265 0.0 
1.15718 0.984858 0.0 
1.1561 0.979427 0.0 
1.1898 0.984505 0.0 
1.20252 0.977501 0.0 
1.15202 0.97399 0.0 
1.21628 0.977053 0.0 
1.13124 0.965637 0.0 
1.19284 0.99535 0.0 
1.1881 0.984374 0.0 
1.14727 0.976088 0.0 
1.20788 0.984146 0.0 
1.12866 0.970728 0.0 
1.16203 0.979411 0.0 
1.1575 0.984219 0.0 
1.20937 0.977253 0.0 
1.17911 0.988318 0.0 
1.20222 0.984676 0.0 
1.12931 0.967047 0.0 
1.20292 0.991348 0.0 
1.17631 0.992161 0.0 
1.18217 0.986867 0.0 
1.22274 0.972743 0.0 
1.22719 0.978292 0.0 
1.13275 0.966851 0.0 
1.14181 0.968311 0.0 
1.18804 0.995782 0.0 
1.1917 0.995261 0.0 
1.15428 0.982279 0.0 
1.19575 0.993984 0.0 
1.16094 0.979431 0.0 
1.15786 0.966692 0.0 
1.14979 0.980833 0.0 
1.16953 0.989364 0.0 
1.17728 0.977786 0.0 
1.15351 0.982222 0.0 
1.14217 0.979305 0.0 
1.24194 0.976433 0.0 
1.19139 0.984862 0.0 
1.15083 0.962259 0.0 
1.15151 0.982145 0.0 
1.18649 0.985419 0.0 
1.15033 0.981805 0.0 
1.19706 0.992349 0.0 
1.1502 0.963402 0.0 
1.18547 0.984565 0.0 
1.15069 0.982533 0.0 
1.15967 0.975393 0.0 
1.19664 0.980292 0.0 
1.15851 0.977033 0.0 
1.14997 0.976037 0.0 
1.14852 0.964054 0.0 
1.13691 0.969299 0.0 
1.15381 0.977139 0.0 
1.17283 0.987451 0.0 
1.1798 0.993205 0.0 
1.18788 0.978993 0.0 
1.15044 0.97215 0.0 
1.16051 0.974858 0.0 
[...]
<PointData>
  <DataArray type = "Float64" Name="Vitesse" NumberOfComponents="3" format="ascii">
0.00118865 0.00529065 0.0 
0.00633273 0.000237478 0.0 
-0.00161584 -0.00429507 0.0 
0.731943 0.00942733 0.0 
-0.011165 -0.00457436 0.0 
0.534757 0.0190268 0.0 
-0.0303526 0.00442036 0.0 
0.457292 0.0195249 0.0 
0 0 0.0 
0.0325134 0.0054958 0.0 
-0.054624 0.00260321 0.0 
-0.00885899 -0.0143587 0.0 
-0.0069659 -0.00396606 0.0 
0.352497 0.0131847 0.0 
-0.0521009 0.00390806 0.0 
-0.0267479 -0.009202 0.0 
-0.045441 -0.000256762 0.0 
0.0195215 0.00264119 0.0 
0.0135014 0.00122217 0.0 
0 0 0.0 
0.0167108 -0.00686345 0.0 
-0.0154338 -0.011541 0.0 
-0.0433493 0.00562798 0.0 
-0.0172584 -0.00860754 0.0 
0.300482 0.0225702 0.0 
0.0161973 -0.00758538 0.0 
0.320016 0.013961 0.0 
-0.0399745 -0.0101003 0.0 
0.062907 -0.00173383 0.0 
0.241554 0.0110463 0.0 
-0.0471905 0.00238858 0.0 
0.550322 0.0193492 0.0 
0.0104077 0.00517438 0.0 
-0.00453439 -0.00591817 0.0 
0.0246156 -0.00358467 0.0 
-0.0144396 -0.00613344 0.0 
0.372545 0.0171888 0.0 
-0.00164742 -0.00213528 0.0 
-0.00312625 -0.0010738 0.0 
0.00827963 -0.00703164 0.0 
0.464175 0.0199665 0.0 
0.00444051 -0.00209411 0.0 
0.0189229 -0.00134373 0.0 
0.00756969 -0.00205192 0.0 
0.429928 0.0201728 0.0 
0.188822 0.00635217 0.0 
0.0432183 -0.00672293 0.0 
0.0364867 0.00260736 0.0 
0.053361 0.0080316 0.0 
-0.00257021 -0.00937653 0.0 
-0.00428133 -0.00171452 0.0 
-0.010507 -0.0139972 0.0 
0.113784 -0.00087947 0.0 
0.0720593 -0.00171045 0.0 
0.0106446 -0.00357209 0.0 
0.100837 0.00257992 0.0 
0.113073 0.00552995 0.0 
0.026468 -0.0086227 0.0 
-0.0076288 -0.00325958 0.0 
-0.00589062 -0.0102469 0.0 
0.100445 -0.000225755 0.0 
-0.0424628 0.000440643 0.0 
0.266508 0.0116678 0.0 
0.222563 0.0112389 0.0 
0.00787338 -0.00649466 0.0 
0.30728 0.0182901 0.0 
0.244442 0.0161691 0.0 
0.151206 0.00626069 0.0 
0.221351 0.0090778 0.0 
0.263172 0.019126 0.0 
0.0228116 0.00495811 0.0 
0.506661 0.0187479 0.0 
-0.0151887 -0.0149913 0.0 
-0.0243803 -0.0162536 0.0 
0.000540232 0.00415477 0.0 
0.0184148 -0.0090663 0.0 
0 0 0.0 
-0.0160024 -0.00750038 0.0 
-0.0087255 -0.0023773 0.0 
-0.028988 -0.0129024 0.0 
0.0110798 -0.00566741 0.0 
0.369657 0.0203068 0.0 
0.108679 0.00988677 0.0 
0.0614999 0.00110447 0.0 
0.0299989 0.00628946 0.0 
0.883794 0.00869297 0.0 
0.258066 0.0142132 0.0 
0.117406 0.0014702 0.0 
0.0539498 0.00841628 0.0 
1.07639 -0.0471328 0.0 
-0.0070216 -0.00285695 0.0 
0.52854 0.0200758 0.0 
-0.0407437 0.00235669 0.0 
0.0403889 0.000108085 0.0 
0.201334 0.0155251 0.0 
0.415078 0.0185357 0.0 
0.661442 0.0122705 0.0 
-0.0429641 0.00420212 0.0 
0.875064 0.00507769 0.0 
0.0270401 -0.00990074 0.0 
0.0114974 -0.0077733 0.0 
0.0315558 -0.00520601 0.0 
0.893131 0.0168309 0.0 
0.0929038 -0.00328737 0.0 
0.00303412 -0.00932952 0.0 
-0.000924623 -0.00270417 0.0 
-9.52738e-05 -0.00820142 0.0 
-0.042637 0.00199675 0.0 
0.0928704 0.00420647 0.0 
-0.042847 -0.003595 0.0 
0.104075 0.00579231 0.0 
0.137233 0.0110432 0.0 
-0.0146512 -0.0150934 0.0 
-0.00715424 -0.00844534 0.0 
-0.0031444 -0.00472022 0.0 
0.110778 0.00586187 0.0 
0 0 0.0 
0.111997 0.00224889 0.0 
0.871029 0.00805345 0.0 
0.572867 0.0201202 0.0 
0.185081 0.00926273 0.0 
0.926862 0.00547753 0.0 
-0.0119292 -0.0117351 0.0 
0.1664 0.00370739 0.0 
-0.00416058 -0.00201808 0.0 
0.00656099 -0.00232205 0.0 
0.00629201 0.00110332 0.0 
-0.0390779 0.00255836 0.0 
0.0163347 0.0004997 0.0 
0.0375029 -0.00856049 0.0 
0.0104954 -0.00263494 0.0 
0.00181155 -0.0106842 0.0 
0.420978 0.0158942 0.0 
0.290848 0.0121409 0.0 
0.670687 0.0328699 0.0 
-0.0420078 0.00132528 0.0 
0.352059 0.0173753 0.0 
-0.0314 -0.0035427 0.0 
0.00143058 -0.00504743 0.0 
0.636928 0.0335966 0.0 
0 0 0.0 
0.778804 0.019323 0.0 
-0.00531838 -0.00328512 0.0 
0.715682 0.014233 0.0 
0.0385753 -0.00868843 0.0 
-0.0104815 -0.00822549 0.0 
0.00302246 -0.0129373 0.0 
0.00639801 -0.000752843 0.0 
0.501653 0.0193048 0.0 
-0.0218243 -0.0078652 0.0 
0.0191728 -0.0021864 0.0 
-0.0243076 0.00316745 0.0 
0.439349 0.0175437 0.0 
0.0289333 -0.00458408 0.0 
0 0 0.0 
0.145674 0.00948326 0.0 
0.179128 0.0102616 0.0 
0.0546452 -0.00700816 0.0 
-0.00488598 -0.0135165 0.0 
-0.00298893 -0.00396931 0.0 
0.134945 0.00529589 0.0 
-0.00865293 -0.00347233 0.0 
-0.0296037 -0.0135152 0.0 
0.362861 0.0197262 0.0 
-0.000814219 -0.012593 0.0 
0.465798 0.017173 0.0 
0.775558 0.0266475 0.0 
-0.0071179 -0.00280685 0.0 
0.0323354 -0.00861473 0.0 
0.60005 0.0339777 0.0 
-0.0253109 -0.00199238 0.0 
0.079135 -5.27992e-05 0.0 
0.0040445 -0.0115715 0.0 
-0.053228 0.00213359 0.0 
0.737814 0.0280684 0.0 
0.685072 0.0121813 0.0 
0.0227191 -0.00907875 0.0 
0.556605 0.0325651 0.0 
0.105144 0.0118391 0.0 
-0.0171739 -0.00722617 0.0 
0.760409 0.0122643 0.0 
0.710392 0.0298093 0.0 
0.167334 0.0110738 0.0 
0.190011 0.0073634 0.0 
0.2019 0.0159111 0.0 
-0.0166631 -0.00226323 0.0 
0.0018998 0.00562863 0.0 
-0.0483333 0.00515576 0.0 
0.743023 0.0121962 0.0 
0.0564595 -0.00389908 0.0 
0.00186795 -0.00982949 0.0 
0.864256 0.0183923 0.0 
-0.00761868 -0.0133722 0.0 
0.0799287 -0.000605202 0.0 
-0.00562164 -0.00237979 0.0 
-0.0504426 0.00258907 0.0 
-0.00857696 -0.0042548 0.0 
0.251428 0.0121145 0.0 
0.0154832 0.00506143 0.0 
0.09866 -0.000783308 0.0 
-0.0119371 -0.00708201 0.0 
0.825951 0.0133281 0.0 
-0.00687251 -0.00262676 0.0 
0.184499 0.0112106 0.0 
0.0204609 0.0055793 0.0 
0.0333493 0.00228527 0.0 
0.0856448 0.00832733 0.0 
-0.00390509 -0.00150399 0.0 
0.129837 0.00544058 0.0 
-0.0137551 -0.00888429 0.0 
-0.0350143 -0.0164679 0.0 
0.585479 0.0324458 0.0 
0.0426955 -0.000775074 0.0 
0.312554 0.0179119 0.0 
-0.0172866 0.0020806 0.0 
0 0 0.0 
0.04832 0.00676313 0.0 
0.232253 0.0145131 0.0 
1.0632 -0.0479675 0.0 
-0.0156374 0.00255903 0.0 
-0.0125992 -0.00516231 0.0 
0 0 0.0 
-0.0494945 0.00250735 0.0 
0.169796 0.00666456 0.0 
0.0185629 -0.00269732 0.0 
0.00295011 -0.00625537 0.0 
-0.00391825 -0.00164956 0.0 
0.0021629 -0.0125155 0.0 
0.00772429 -0.0107659 0.0 
0 0 0.0 
0.0349987 -0.0066732 0.0 
0.279993 0.0181614 0.0 
0.0112163 0.000459423 0.0 
-0.0250896 -0.0141168 0.0 
0.0975627 0.00178687 0.0 
-0.00595914 -0.00465271 0.0 
0.0107113 0.00394706 0.0 
-0.0176473 -0.0105341 0.0 
0.00696562 -0.00950592 0.0 
0.138575 0.00697022 0.0 
-0.00764694 -0.00493598 0.0 
-0.00608957 -0.0121928 0.0 
-0.0527447 0.00290632 0.0 
-0.0223608 -0.00679293 0.0 
0.0830423 0.00910601 0.0 
0.599626 0.0191128 0.0 
-0.0424204 -0.00394651 0.0 
0.187187 0.00474348 0.0 
0 0 0.0 
0.165345 0.0136601 0.0 
-0.00289091 -0.00896958 0.0 
0.317229 0.018815 0.0 
0.156421 0.0052774 0.0 
-0.0361028 -0.0047744 0.0 
-0.00458893 -0.00167983 0.0 
0.361436 0.0195214 0.0 
0.0131788 -0.0108029 0.0 
-0.0352465 -0.00830638 0.0 
-0.00734854 -0.00327702 0.0 
0.237872 0.011514 0.0 
0.209473 0.0190004 0.0 
0.139158 0.001127 0.0 
-0.0322958 -0.0162043 0.0 
-0.0467446 0.00477845 0.0 
0.177322 0.00346507 0.0 
0.05924 0.00253949 0.0 
0.203444 0.00915893 0.0 
0.00201289 -0.00321525 0.0 
0.7172 0.0207005 0.0 
-0.0106311 -0.00427387 0.0 
-0.0133624 -0.0054961 0.0 
0.0354146 0.00416238 0.0 
-0.0513368 0.00344779 0.0 
0.0453832 0.00725902 0.0 
0.0135496 0.00269096 0.0 
0.0126265 0.00125897 0.0 
0.032574 -0.00556847 0.0 
-0.00514685 -0.00194239 0.0 
-0.0106477 -0.00455808 0.0 
-0.0460624 0.00255895 0.0 
-0.0262712 -0.00483708 0.0 
0.961519 -0.0449063 0.0 
0.667015 0.031269 0.0 
0.0548559 0.0031995 0.0 
0.103895 0.00110262 0.0 
0.00414305 -0.00608096 0.0 
-0.0320966 0.00590043 0.0 
0.00143573 -0.00495117 0.0 
0.104541 0.00926364 0.0 
0.0423921 0.00849394 0.0 
-0.00763595 -0.00252983 0.0 
0.0313024 -0.0012592 0.0 
0.0191841 0.0044161 0.0 
0.125479 0.00252359 0.0 
0.819455 0.0160387 0.0 
0.0153475 -0.00201774 0.0 
0.700627 0.0138293 0.0 
0.0386175 -0.00521764 0.0 
0.138542 0.00438855 0.0 
-0.0292586 -0.0131863 0.0 
-0.00539978 -0.00210224 0.0 
-0.0069407 -0.00733702 0.0 
-0.0342947 -0.000102204 0.0 
0.475788 0.0294423 0.0 
0.988515 -0.0453633 0.0 
-0.0359064 0.00375022 0.0 
0.229688 0.0197621 0.0 
0.0425648 -0.00526929 0.0 
0 0 0.0 
-0.0376566 0.00497731 0.0 
0.0606985 0.000558053 0.0 
0.905252 0.0127322 0.0 
0.00841879 -0.0100185 0.0 
0.0732321 -0.00206254 0.0 
0.0236487 0.00230129 0.0 
-0.0178307 0.00424966 0.0 
0.0799138 -0.00268987 0.0 
0.0361701 -0.00685139 0.0 
0.0966402 -0.00161211 0.0 
0.664953 0.0144159 0.0 
0.0805378 0.00706366 0.0 
-0.00485395 -0.00370502 0.0 
0.00269233 -0.00264967 0.0 
0.0261 0.00411396 0.0 
-0.0126708 -0.00646835 0.0 
0.119997 -0.000355957 0.0 
-0.00557741 -0.00212329 0.0 
-0.00674913 -0.000726731 0.0 
-0.018535 -0.0080666 0.0 
-0.0071261 -0.00854329 0.0 
0.00452641 -0.00387126 0.0 
0 0 0.0 
0.000990068 -0.0103795 0.0 
-0.0042384 -0.00567292 0.0 
0.00283944 -0.00578787 0.0 
0.0241425 0.00189767 0.0 
0.0339823 -0.00638706 0.0 
-0.0079818 -0.00356206 0.0 
0.63225 0.0195081 0.0 
-0.00336432 -0.00429001 0.0 
-0.0523108 0.00182831 0.0 
0.00454599 -0.00643851 0.0 
0 0 0.0 
0.0547199 0.00583237 0.0 
-0.00244937 -0.00682999 0.0 
0.00736159 0.00547351 0.0 
0.103909 -0.00204345 0.0 
0 0 0.0 
0.105347 0.00396787 0.0 
0.226274 0.00667601 0.0 
0.0155103 -0.00402068 0.0 
-0.0183411 -0.0100452 0.0 
0.14743 0.0108658 0.0 
0.0817752 0.010619 0.0 
-0.0282722 -0.00618093 0.0 
0.0107049 -0.00592349 0.0 
0.0343745 -0.00865163 0.0 
-0.0144625 0.00345864 0.0 
0.215923 0.0101805 0.0 
0.800521 0.00992272 0.0 
0.0216138 -0.00995864 0.0 
0.812838 0.0149328 0.0 
0.00328386 -0.00849186 0.0 
-0.0348836 -0.0151206 0.0 
0.325586 0.0134201 0.0 
0.100158 0.0122054 0.0 
0.474646 0.0246232 0.0 
-0.0146635 -0.00817051 0.0 
0.0266577 0.00419276 0.0 
-0.00526651 -0.00204206 0.0 
-0.0384556 0.000232832 0.0 
0.650204 0.0190572 0.0 
-0.00423625 -0.0106922 0.0 
0.078253 -0.00214002 0.0 
0.249785 0.0131546 0.0 
0.100794 0.00408726 0.0 
-0.0353295 -0.0166108 0.0 
-0.00719661 -0.0131069 0.0 
0.128982 0.0114179 0.0 
0.258906 0.0111513 0.0 
0.0227012 -0.00314827 0.0 
0.0767926 -0.00470413 0.0 
-0.0503067 0.00436993 0.0 
0.781861 0.00976184 0.0 
0.572371 0.0218964 0.0 
0.0586712 0.00811183 0.0 
0.000572279 0.00538333 0.0 
0.00801494 -0.0048451 0.0 
-0.0171379 -0.00753944 0.0 
0 0 0.0 
0.00898194 -0.00437287 0.0 
-0.010546 -0.0101389 0.0 
0.155324 0.00811126 0.0 
0.158168 0.00949227 0.0 
0.192836 0.0146515 0.0 
0.708117 0.0120485 0.0 
-0.0236979 0.00511547 0.0 
-0.0103574 -0.0118311 0.0 
0.0640278 0.00463738 0.0 
-0.000841426 0.00383399 0.0 
0.304458 0.0194415 0.0 
0.0182472 -0.00621424 0.0 
-0.00671386 -0.00254313 0.0 
0.174693 0.0117333 0.0 
-0.032771 -0.0154744 0.0 
-0.0108155 0.00169137 0.0 
0.607228 0.0147559 0.0 
-0.0539972 0.00324989 0.0 
-0.00474314 -0.00206152 0.0 
-0.0320961 -0.0169164 0.0 
0.37387 0.0240665 0.0 
0.168659 0.0155581 0.0 
0.613369 0.0166958 0.0 
0.491659 0.020667 0.0 
-0.0150396 -0.00493091 0.0 
-0.0227114 0.0018255 0.0 
-0.00875791 -0.00359876 0.0 
-0.0379016 0.00667626 0.0 
0.0161423 -0.00592344 0.0 
0.59973 0.0196355 0.0 
-0.00483054 -0.00222102 0.0 
-0.00381819 -0.00158101 0.0 
0.0912887 -0.00281741 0.0 
-0.00763039 -0.00313619 0.0 
0.000179334 -7.1018e-05 0.0 
0.259888 0.0218088 0.0 
-0.0138074 -0.00843767 0.0 
0.859505 0.0140865 0.0 
-0.00445781 -0.00160323 0.0 
-0.0216271 -0.0141214 0.0 
-0.00359659 -0.00132066 0.0 
-0.0474215 0.00485033 0.0 
0.802535 0.0159806 0.0 
-0.0148374 -0.0141939 0.0 
0 0 0.0 
0.121774 0.00393145 0.0 
0.0691405 0.000429353 0.0 
0.0647248 -0.000300488 0.0 
0.0726605 0.004182 0.0 
0.769035 0.0167431 0.0 
0.418421 0.0208831 0.0 
0.05041 0.000562297 0.0 
-0.0259684 -0.0114242 0.0 
-0.00948961 -0.00421921 0.0 
0.0851315 -0.00333401 0.0 
0.248487 0.014491 0.0 
0.145021 0.00530005 0.0 
0.0174307 -0.00748315 0.0 
0.160997 0.00778451 0.0 
0.0977619 0.00932402 0.0 
-0.0183831 0.000419075 0.0 
0.125214 0.0076179 0.0 
-0.00528607 -0.00234356 0.0 
0.026982 -0.00496774 0.0 
0.034856 0.00548261 0.0 
0.0037985 0.000710655 0.0 
0.0717391 0.00581585 0.0 
0.0521013 0.00402957 0.0 
0.144196 0.00166937 0.0 
-0.0532518 0.00372698 0.0 
0.546345 0.0292665 0.0 
0.733496 0.0145931 0.0 
0.812998 0.00753973 0.0 
0.0524842 -0.00695183 0.0 
-0.0111352 -0.00455094 0.0 
0.698095 0.0344767 0.0 
-0.0108274 -0.0129406 0.0 
0.0233879 -0.00720485 0.0 
0.0633563 -0.00258302 0.0 
0.101013 -0.00146817 0.0 
-0.00431496 -0.00522778 0.0 
-0.00414982 -0.00274648 0.0 
0.00629248 -0.00425244 0.0 
0.0563935 0.0048949 0.0 
-0.0268208 0.000311901 0.0 
0.0195448 0.00255569 0.0 
-0.000486078 -0.0108595 0.0 
0.659459 0.0191944 0.0 
-0.00922799 -0.00916685 0.0 
-0.0138573 -0.0127194 0.0 
-0.0373052 -0.0148989 0.0 
0.533436 0.0266878 0.0 
1.06557 -0.0569321 0.0 
0.368432 0.0189724 0.0 
0.261311 0.00876104 0.0 
0.00693834 -0.00245918 0.0 
0.315462 0.0200997 0.0 
-0.00218068 -0.00691752 0.0 
0.818227 0.0102409 0.0 
0.0947076 0.00107295 0.0 
0.102134 0.00312464 0.0 
0.161469 0.00254415 0.0 
0.103624 0.0103585 0.0 
0.086097 0.0102377 0.0 
-0.04938 0.00210506 0.0 
0.272486 0.00942301 0.0 
-0.00238686 0.0042713 0.0 
0.000497317 -0.00468187 0.0 
0.637687 0.0191077 0.0 
-0.0357616 -0.0135923 0.0 
0.152999 0.00254115 0.0 
0.618145 0.0192578 0.0 
0.11291 0.00924267 0.0 
0.0852109 0.011028 0.0 
0.0321944 -0.00347161 0.0 
-0.0274028 -0.0155557 0.0 
0.00560632 0.00162383 0.0 
0.0129842 0.00100974 0.0 
1.02011 -0.0360755 0.0 
-0.0401065 0.0032004 0.0 
0.162362 0.00822328 0.0 
0.0559129 -0.00132385 0.0 
0.295343 0.0159358 0.0 
0.12266 0.00102631 0.0 
0.0876894 0.00665576 0.0 
-0.0409003 -0.000631296 0.0 
0.0440061 0.00282388 0.0 
0.785358 0.0124991 0.0 
0.363123 0.019257 0.0 
1.01781 -0.0487224 0.0 
0.273903 0.0175131 0.0 
0.0529005 -0.00307369 0.0 
0.0804915 -0.00263187 0.0 
0.0116096 -0.00293074 0.0 
0.949891 -0.0388268 0.0 
0.0754481 0.00823203 0.0 
0.00604833 0.000389252 0.0 
1.01712 -0.0553314 0.0 
-0.0282529 -0.0123079 0.0 
-0.00240962 -0.00242653 0.0 
0.00441593 -0.00345225 0.0 
0.115935 0.00712398 0.0 
-0.0176408 -0.0154057 0.0 
0.945691 -0.0282524 0.0 
0.113044 0.00863001 0.0 
0.156029 0.00481131 0.0 
1.04521 -0.0584252 0.0 
0.896623 0.00524172 0.0 
0.0489607 -0.00200752 0.0 
0.0389694 -0.00278729 0.0 
-0.00185989 -0.00318292 0.0 
0.0546147 -0.00428744 0.0 
-0.0034667 -0.00918883 0.0 
-0.000731708 -0.00721782 0.0 
0.495693 0.0269776 0.0 
-0.0110157 -0.00488216 0.0 
0.094241 0.00617831 0.0 
0.000160915 0.00547828 0.0 
0.0790913 0.00541272 0.0 
-0.000392205 -0.0123917 0.0 
-0.00500079 -0.0022419 0.0 
0.424235 0.0204721 0.0 
0.131726 0.00765152 0.0 
0 0 0.0 
0.491546 0.0206166 0.0 
0.130768 0.00327896 0.0 
0.113769 0.00490971 0.0 
0.210335 0.016778 0.0 
0.0202474 0.00691271 0.0 
0.135899 0.000376726 0.0 
0 0 0.0 
0.142538 0.00790508 0.0 
0.314398 0.0114867 0.0 
-0.016829 0.00104982 0.0 
-0.0406437 -0.00733348 0.0 
0 0 0.0 
0.895007 0.0123185 0.0 
0 0 0.0 
-0.0278704 -0.00364414 0.0 
0.879425 0.0168142 0.0 
0.010746 0.00183542 0.0 
0.428371 0.025639 0.0 
-0.00568136 0.00512124 0.0 
0.0404422 0.00329438 0.0 
0.108634 0.00192997 0.0 
0 0 0.0 
0.00168063 -0.000171204 0.0 
-0.0509963 0.00254431 0.0 
-0.0426185 0.00519937 0.0 
-0.00861986 -0.0066929 0.0 
0.00235592 0.00050074 0.0 
-0.00378923 -0.00137484 0.0 
0.0103209 -0.0120266 0.0 
0.162956 0.0026989 0.0 
0.00212069 0.00039251 0.0 
0 0 0.0 
0.83273 0.0204464 0.0 
0.0448258 -0.00150155 0.0 
0.0100707 -0.0102418 0.0 
0.634043 0.0147533 0.0 
0.202317 0.0173972 0.0 
0.0696852 -0.00545879 0.0 
0.85188 0.0180074 0.0 
-0.003875 0.00145059 0.0 
0.843732 0.0156435 0.0 
0 0 0.0 
-0.00716709 0.00400054 0.0 
0.658437 0.0198342 0.0 
0.00801001 -0.0122694 0.0 
0.0879061 0.000951293 0.0 
-0.0382478 -0.00798501 0.0 
-0.0323362 -0.00978622 0.0 
0.0756411 -0.00363957 0.0 
0.107049 0.00764788 0.0 
0.0221416 0.00704332 0.0 
0.392888 0.0151921 0.0 
0 0 0.0 
0.643601 0.035095 0.0 
0.0438034 -0.0033072 0.0 
0.4335 0.0197945 0.0 
0.720991 0.0164902 0.0 
0.0198904 0.00616525 0.0 
0.1199 -0.000852511 0.0 
0.0156523 -0.00347668 0.0 
-0.0077762 0.003765 0.0 
0.646288 0.0161935 0.0 
0.172409 0.016138 0.0 
-0.0105197 0.00299346 0.0 
0.757812 0.0182089 0.0 
0.046068 -0.0073212 0.0 
0.432982 0.0198024 0.0 
0.157985 0.0150993 0.0 
-0.00146635 -0.00234778 0.0 
0.0196484 -0.00460518 0.0 
0 0 0.0 
0.00150697 -0.00392363 0.0 
0.834775 0.0146136 0.0 
0 0 0.0 
0.37274 0.0272089 0.0 
0.00777985 0.00604888 0.0 
0.0273746 -0.00268145 0.0 
0.315414 0.0248759 0.0 
0.206533 0.0128859 0.0 
-0.0142977 -0.00734081 0.0 
0.0676173 0.00729881 0.0 
0.0283488 0.00456043 0.0 
-0.0422715 0.00266921 0.0 
0.670399 0.0180576 0.0 
-0.00921693 -0.012857 0.0 
0 0 0.0 
-0.0197882 -0.00366128 0.0 
0.10138 0.0119941 0.0 
-0.0031996 -0.0065585 0.0 
0.0979354 0.00588426 0.0 
0.46365 0.0200688 0.0 
0.646109 0.0197334 0.0 
0.0141064 -0.00919504 0.0 
-0.00600682 0.00510649 0.0 
0.260733 0.015949 0.0 
0.215599 0.0145058 0.0 
0.0040275 0.00581358 0.0 
-0.0104601 -0.00408193 0.0 
-0.0519618 0.00360507 0.0 
0.320434 0.0215173 0.0 
-0.027252 -0.0130605 0.0 
0.697982 0.0278864 0.0 
0.747613 0.0161197 0.0 
0.0837232 0.00145058 0.0 
0.211435 0.00586919 0.0 
0.733172 0.0199172 0.0 
0.147008 0.00938755 0.0 
-0.0416038 -0.0060917 0.0 
0.901123 0.00908191 0.0 
-0.0266897 -0.00973479 0.0 
-0.0493898 0.00199821 0.0 
0.00435547 0.000539952 0.0 
0.253792 0.00906773 0.0 
1.06575 -0.0667432 0.0 
-0.0122405 -0.00548615 0.0 
0.0562936 0.00542579 0.0 
-0.00455526 -0.00179476 0.0 
-0.0339819 -0.00710521 0.0 
-0.0292371 0.00812207 0.0 
0.0162357 0.00621851 0.0 
0.009574 -0.0014299 0.0 
0 0 0.0 
0.0019684 -0.0116548 0.0 
-0.00712966 -0.00323029 0.0 
0.694619 0.0182993 0.0 
0.661597 0.0256297 0.0 
0.0163452 0.00663197 0.0 
0.00723994 0.00410039 0.0 
0.592062 0.0194204 0.0 
-0.0146114 -0.0138469 0.0 
0.226817 0.0179846 0.0 
0.0551329 0.00155055 0.0 
0 0 0.0 
-0.017425 -0.00742285 0.0 
-0.00810143 -0.00313077 0.0 
-0.00393435 -0.0137833 0.0 
-0.0306178 -0.0108099 0.0 
0 0 0.0 
-0.0327897 -0.0146887 0.0 
0.317735 0.0200751 0.0 
-0.0017345 -0.000740814 0.0 
0.464046 0.0192989 0.0 
0.0788393 0.00400663 0.0 
-0.0022121 0.00324546 0.0 
0 0 0.0 
-0.0331958 -0.0133963 0.0 
-0.00377398 -0.00612789 0.0 
0.0218864 -0.000557471 0.0 
-0.00570352 -0.00254814 0.0 
0.195681 0.0169165 0.0 
0.00337128 -0.000549081 0.0 
-0.00743765 -0.00962981 0.0 
0.116316 0.00299188 0.0 
-0.034799 0.00187077 0.0 
-0.0121391 0.00421195 0.0 
0.00195413 -3.69932e-06 0.0 
-0.0242366 0.00502912 0.0 
0.342128 0.0236387 0.0 
-0.0136067 -0.00047466 0.0 
-0.00547041 -0.0029313 0.0 
-0.00202397 -0.00963671 0.0 
0 0 0.0 
-0.00932854 -0.0118266 0.0 
-0.0361214 -0.00337933 0.0 
0.749964 0.0149852 0.0 
0 0 0.0 
0.843111 0.0171844 0.0 
-0.00896421 -0.00613468 0.0 
0.0152051 0.00563664 0.0 
-0.0357056 0.00293128 0.0 
-0.000303034 -0.000931882 0.0 
0.0167759 -0.0112135 0.0 
0.112658 0.00877358 0.0 
0.691568 0.0159873 0.0 
-0.0101683 -0.0141788 0.0 
0.637962 0.018572 0.0 
-0.0126914 0.00463411 0.0 
0.571454 0.019524 0.0 
-0.0305332 -0.000388155 0.0 
0.0434787 -0.00447852 0.0 
0.613847 0.0197815 0.0 
-0.0404097 0.00658634 0.0 
0.0213373 0.000405456 0.0 
0.0618494 -0.00125503 0.0 
-0.0100737 -0.00463722 0.0 
0.556994 0.0197774 0.0 
0.395745 0.0188912 0.0 
0.00544068 0.000483707 0.0 
-0.000530311 -0.000859991 0.0 
0.644901 0.0194795 0.0 
0.207207 0.0141325 0.0 
0.00199112 0.000434759 0.0 
0.276733 0.013626 0.0 
0 0 0.0 
-0.0141889 -0.00633178 0.0 
-0.0390531 -0.00151679 0.0 
0 0 0.0 
-0.016708 -0.00699172 0.0 
0.0780116 0.0108251 0.0 
0.361969 0.0146707 0.0 
0.324323 0.0184292 0.0 
-0.00328594 0.000499079 0.0 
0.0123224 -0.00849041 0.0 
0.498458 0.018177 0.0 
-0.0354211 0.00299635 0.0 
0.00130624 5.03512e-05 0.0 
-0.00941338 -0.00373332 0.0 
0.955932 0.00723984 0.0 
-0.0262507 0.00336971 0.0 
0 0 0.0 
-0.0090854 -0.00368093 0.0 
0.0272296 0.00737922 0.0 
0.00726531 -0.0035929 0.0 
-0.0472767 0.0035052 0.0 
-0.0126893 0.000647768 0.0 
-0.009254 -0.00379242 0.0 
0.00734851 -8.4225e-05 0.0 
0.773845 0.0156398 0.0 
0.198762 0.0146718 0.0 
0.299822 0.0189262 0.0 
0.331586 0.0155683 0.0 
0.00564006 0.00323108 0.0 
0.222365 0.0130341 0.0 
0.129543 2.9356e-05 0.0 
0.7543 0.0100047 0.0 
0.0195093 -0.00510649 0.0 
0.331989 0.0175562 0.0 
0.0946346 0.00769263 0.0 
-0.0130412 -0.0115568 0.0 
0.0327483 0.00433635 0.0 
0.352892 0.0156454 0.0 