<VTKFile type="UnstructuredGrid" version="0.1" byte_order="LittleEndian">
  <UnstructuredGrid>
    <Piece NumberOfPoints="14100" NumberOfCells="27498">
      <Points>
        <DataArray type = "Float64" NumberOfComponents="3" format="ascii">
1.10668 1.00618 0.0 
1.11595 1.00267 0.0 
1.14594 0.996879 0.0 
1.08395 1.00939 0.0 
1.14759 0.997318 0.0 
1.09128 1.02451 0.0 
1.14446 1.00165 0.0 
1.06716 1.0116 0.0 
1.14732 0.997839 0.0 
1.14638 0.998345 0.0 
1.14694 0.996839 0.0 
1.14699 0.999076 0.0 
1.14849 0.997701 0.0 
1.12326 1.00179 0.0 
1.09341 1.0104 0.0 
1.08858 1.00929 0.0 
1.1182 1.0112 0.0 
1.14519 0.996914 0.0 
1.12652 1.00713 0.0 
1.09177 1.01036 0.0 
1.14384 0.997669 0.0 
1.12478 1.00797 0.0 
1.12327 1.00855 0.0 
1.08783 1.02738 0.0 
1.11298 1.00812 0.0 
1.12434 1.00136 0.0 
1.09354 1.01122 0.0 
1.1138 1.00773 0.0 
1.09619 1.0106 0.0 
1.14045 0.997903 0.0 
1.09711 1.01161 0.0 
1.09526 1.01561 0.0 
1.0771 1.01291 0.0 
1.11507 1.01171 0.0 
1.09388 1.0119 0.0 
1.11354 1.01238 0.0 
1.09944 1.02515 0.0 
1.14141 0.998204 0.0 
1.10651 1.01185 0.0 
1.14488 0.999077 0.0 
1.12058 1.0019 0.0 
1.14576 0.999891 0.0 
1.14495 0.998226 0.0 
1.14216 1.0009 0.0 
1.11279 1.01159 0.0 
1.13953 0.997809 0.0 
1.11607 1.00838 0.0 
1.1299 0.99934 0.0 
1.14295 0.997045 0.0 
1.1269 0.999423 0.0 
1.14314 1.00239 0.0 
1.07827 1.0184 0.0 
1.10133 1.01258 0.0 
1.14075 0.997213 0.0 
1.12593 0.999674 0.0 
1.1437 0.996997 0.0 
1.11487 1.01096 0.0 
1.12599 1.00229 0.0 
1.1225 1.00658 0.0 
1.14016 1.00128 0.0 
1.12731 0.999891 0.0 
1.11507 1.01013 0.0 
1.12428 1.00205 0.0 
1.14369 1.00001 0.0 
1.13794 0.997489 0.0 
1.13129 0.998468 0.0 
1.14021 0.99726 0.0 
1.14059 0.998705 0.0 
1.13922 0.998484 0.0 
1.10943 1.01513 0.0 
1.14495 0.997491 0.0 
1.12787 0.999187 0.0 
1.14288 0.999305 0.0 
1.11662 1.01046 0.0 
1.1321 0.999703 0.0 
1.11995 1.00149 0.0 
1.142 1.00006 0.0 
1.14353 0.998514 0.0 
1.13343 1.00534 0.0 
1.12415 1.0071 0.0 
1.14253 0.998061 0.0 
1.11402 1.00817 0.0 
1.14445 1.00085 0.0 
1.13309 1.0059 0.0 
1.13099 0.999182 0.0 
1.11579 1.00334 0.0 
1.13871 0.997405 0.0 
1.14276 0.997439 0.0 
1.10768 1.01744 0.0 
1.14445 0.996953 0.0 
1.13855 0.998041 0.0 
1.12142 1.00926 0.0 
1.13439 1.00355 0.0 
1.10058 1.00843 0.0 
1.12884 0.998965 0.0 
1.14145 0.997645 0.0 
1.12909 0.998912 0.0 
1.10853 1.01593 0.0 
1.1119 1.01311 0.0 
1.12599 1.00022 0.0 
1.11233 1.01395 0.0 
1.13756 0.999742 0.0 
1.10711 1.01446 0.0 
1.11496 1.00785 0.0 
1.13921 0.997355 0.0 
1.11843 1.01047 0.0 
1.11676 1.00943 0.0 
1.11404 1.01311 0.0 
1.12616 1.0063 0.0 
1.11946 1.0032 0.0 
1.11557 1.01238 0.0 
1.12264 1.00802 0.0 
1.11712 1.00798 0.0 
1.13247 1.00118 0.0 
1.13722 0.997571 0.0 
1.11846 1.00646 0.0 
1.12425 1.0067 0.0 
1.13443 1.00443 0.0 
1.12334 1.00749 0.0 
1.11755 1.00405 0.0 
1.12255 1.00242 0.0 
1.12995 1.00527 0.0 
1.12432 1.00765 0.0 
1.12158 1.00143 0.0 
1.07045 1.02095 0.0 
1.12318 1.00117 0.0 
1.12594 1.00312 0.0 
1.11975 1.00381 0.0 
1.07264 1.02054 0.0 
1.11746 1.00264 0.0 
1.11659 1.00249 0.0 
1.11855 1.00808 0.0 
1.12316 1.00452 0.0 
1.11844 1.00246 0.0 
1.11844 1.00748 0.0 
1.12942 1.00634 0.0 
1.12772 1.00472 0.0 
1.12632 1.00563 0.0 
1.12227 1.00719 0.0 
1.1203 1.0076 0.0 
1.11779 1.00214 0.0 
1.1276 1.00647 0.0 
1.12948 1.00058 0.0 
1.12341 1.00041 0.0 
1.12194 1.00196 0.0 
1.11923 1.00171 0.0 
1.12162 1.00097 0.0 
1.11936 1.00209 0.0 
1.11599 1.00371 0.0 
1.12493 1.00727 0.0 
1.11686 1.00851 0.0 
1.12231 1.00128 0.0 
1.12596 1.00683 0.0 
1.11324 1.00713 0.0 
1.12281 1.00059 0.0 
1.12464 1.00503 0.0 
1.12088 1.00253 0.0 
1.11851 1.00193 0.0 
1.13093 1.00585 0.0 
1.12294 1.00588 0.0 
1.13138 1.00411 0.0 
1.12233 1.00074 0.0 
1.13696 0.998702 0.0 
1.13004 1.00271 0.0 
1.12131 1.00316 0.0 
1.13233 0.999198 0.0 
1.11537 1.00821 0.0 
1.13326 0.998125 0.0 
1.11663 1.00301 0.0 
1.11757 1.0058 0.0 
1.13414 1.00053 0.0 
1.11786 1.00309 0.0 
1.12517 1.00049 0.0 
1.11943 1.00255 0.0 
1.12449 1.00008 0.0 
1.11495 1.00467 0.0 
1.12545 0.999805 0.0 
1.12025 1.00815 0.0 
1.13277 0.998206 0.0 
1.13376 0.998046 0.0 
1.12443 1.00622 0.0 
1.13336 0.999354 0.0 
1.06005 1.0124 0.0 
1.13439 1.00223 0.0 
1.12607 1.004 0.0 
1.13475 0.997898 0.0 
1.13927 0.99948 0.0 
1.10717 1.01655 0.0 
1.12806 1.00245 0.0 
1.13691 1.02247 0.0 
1.1308 0.998561 0.0 
1.12161 1.00399 0.0 
1.13075 1.00099 0.0 
1.1352 0.997833 0.0 
1.12408 1.00373 0.0 
1.1209 1.0012 0.0 
1.13818 1.00428 0.0 
1.13226 1.00212 0.0 
1.13031 1.00183 0.0 
1.12417 1.00078 0.0 
1.1361 1.00493 0.0 
1.13673 0.997632 0.0 
1.13707 0.998196 0.0 
1.12876 1.00012 0.0 
1.11694 1.01183 0.0 
1.12401 1.00023 0.0 
1.13178 0.998378 0.0 
1.11518 1.0073 0.0 
1.1284 1.00598 0.0 
1.13623 0.997694 0.0 
1.12834 0.999636 0.0 
1.11599 1.00521 0.0 
1.12641 0.999547 0.0 
1.13451 0.998973 0.0 
1.12835 0.999075 0.0 
1.12052 1.00704 0.0 
1.12521 1.00094 0.0 
1.1162 1.00901 0.0 
1.12781 1.00322 0.0 
1.11771 1.00988 0.0 
1.12595 1.00144 0.0 
1.13256 1.00301 0.0 
1.13793 0.998339 0.0 
1.12176 1.00769 0.0 
1.13583 1.00558 0.0 
1.1183 1.00874 0.0 
1.08003 1.02396 0.0 
1.13645 1.00188 0.0 
1.13737 1.0035 0.0 
1.13971 1.00264 0.0 
1.13801 1.00036 0.0 
1.11973 1.00996 0.0 
1.13606 1.00028 0.0 
1.13619 1.0027 0.0 
1.13389 0.99862 0.0 
1.11884 1.00465 0.0 
1.12203 1.00534 0.0 
1.13848 1.00211 0.0 
1.08767 1.01488 0.0 
1.14133 1.0034 0.0 
1.13311 0.998897 0.0 
1.12926 1.00363 0.0 
1.13488 0.998565 0.0 
1.11912 1.0093 0.0 
1.09722 1.01382 0.0 
1.0985 1.02002 0.0 
1.13557 0.998733 0.0 
1.13425 0.997971 0.0 
1.14115 0.999452 0.0 
1.11725 1.00708 0.0 
1.12075 1.00866 0.0 
1.13462 1.00133 0.0 
1.13669 1.00101 0.0 
1.13484 0.999591 0.0 
1.12644 1.00064 0.0 
1.13832 1.0012 0.0 
1.13792 0.999027 0.0 
1.09528 1.00838 0.0 
1.13272 1.00028 0.0 
1.12362 1.00301 0.0 
1.12766 1.00074 0.0 
1.13032 0.999819 0.0 
1.12738 0.999304 0.0 
1.13002 0.998715 0.0 
1.13569 0.997766 0.0 
1.10726 1.00697 0.0 
1.14014 1.00042 0.0 
1.12828 1.00151 0.0 
1.12922 0.999491 0.0 
1.13107 1.00029 0.0 
1.14173 1.00176 0.0 
1.13626 0.998244 0.0 
1.13228 0.998291 0.0 
1.12958 0.998808 0.0 
1.12496 0.999942 0.0 
1.13169 0.999017 0.0 
1.13655 0.999414 0.0 
1.13602 0.99899 0.0 
1.10159 1.01482 0.0 
1.09684 1.01918 0.0 
1.07002 1.01309 0.0 
1.09551 1.01132 0.0 
1.09702 1.00742 0.0 
1.07516 1.01195 0.0 
1.11228 1.00665 0.0 
1.09069 1.01867 0.0 
1.10244 1.01056 0.0 
1.10337 1.0131 0.0 
1.10553 1.01324 0.0 
1.09452 1.01017 0.0 
1.06786 1.02052 0.0 
1.10191 1.01601 0.0 
1.08631 1.01226 0.0 
1.09818 1.00982 0.0 
1.0932 1.01456 0.0 
1.10114 1.01934 0.0 
1.10654 1.00562 0.0 
1.10528 1.01598 0.0 
1.06413 1.01637 0.0 
1.16782 1.00566 0.0 
1.09489 1.01074 0.0 
1.1017 1.00863 0.0 
1.06938 1.01807 0.0 
1.10063 1.01015 0.0 
1.07183 1.01096 0.0 
1.08605 1.01101 0.0 
1.11408 1.00857 0.0 
1.0729 1.02137 0.0 
1.06716 1.01959 0.0 
1.0602 1.01123 0.0 
1.11323 1.00475 0.0 
1.08159 1.02761 0.0 
1.07959 1.01042 0.0 
1.08476 1.01114 0.0 
1.07182 1.02595 0.0 
1.10549 1.00585 0.0 
1.17534 1.00189 0.0 
1.08784 1.02516 0.0 
1.10055 1.0063 0.0 
1.10478 1.0197 0.0 
1.11494 1.00885 0.0 
1.1203 1.00584 0.0 
1.09076 1.01061 0.0 
1.07515 1.02468 0.0 
1.10584 1.00988 0.0 
1.09939 1.00889 0.0 
1.07913 1.00998 0.0 
1.09992 1.01829 0.0 
1.11249 1.0036 0.0 
1.06529 1.02711 0.0 
1.11639 1.00765 0.0 
1.10537 1.01804 0.0 
1.09801 1.01509 0.0 
1.08608 1.01425 0.0 
1.07015 1.01119 0.0 
1.12061 1.00645 0.0 
1.10941 1.00818 0.0 
1.07087 1.0217 0.0 
1.08523 1.00862 0.0 
1.17345 1.00435 0.0 
1.08647 1.00848 0.0 
1.08543 1.01833 0.0 
1.12056 1.00503 0.0 
1.10386 1.02297 0.0 
1.1029 1.01365 0.0 
1.10565 1.00927 0.0 
1.09652 1.00815 0.0 
1.06428 1.01572 0.0 
1.09471 1.01278 0.0 
1.11604 1.00666 0.0 
1.0963 1.00929 0.0 
1.11064 1.01192 0.0 
1.13313 1.01277 0.0 
1.06128 1.01053 0.0 
1.09849 1.01588 0.0 
1.10445 1.00916 0.0 
1.11897 1.00693 0.0 
1.10448 1.02057 0.0 
1.1856 1.0109 0.0 
1.06311 1.01436 0.0 
1.08094 1.01838 0.0 
1.10393 1.02143 0.0 
1.10334 1.02228 0.0 
1.10132 1.0075 0.0 
1.11174 1.00834 0.0 
1.10924 1.00765 0.0 
1.10521 1.01876 0.0 
1.07675 1.02552 0.0 
1.10406 1.008 0.0 
1.07096 1.01207 0.0 
1.07218 1.02292 0.0 
1.06269 1.01578 0.0 
1.11455 1.00305 0.0 
1.11502 1.00352 0.0 
1.1882 1.01122 0.0 
1.1154 1.00282 0.0 
1.1104 1.00878 0.0 
1.09003 1.02376 0.0 
1.10453 1.01486 0.0 
1.11416 1.00951 0.0 
1.11315 1.00909 0.0 
1.07176 1.01436 0.0 
1.11043 1.01275 0.0 
1.07558 1.02418 0.0 
1.09382 1.02565 0.0 
1.0694 1.01371 0.0 
1.11294 1.00854 0.0 
1.09984 1.00951 0.0 
1.07296 1.01262 0.0 
1.11056 1.01102 0.0 
1.18544 1.01031 0.0 
1.17148 1.00444 0.0 
1.09458 1.00959 0.0 
1.10876 1.01312 0.0 
1.16967 1.0123 0.0 
1.07296 1.01021 0.0 
1.06491 1.01506 0.0 
1.11228 1.00422 0.0 
1.06421 1.01405 0.0 
1.09241 1.00768 0.0 
1.17128 1.00539 0.0 
1.07984 1.01427 0.0 
1.11167 1.01025 0.0 
1.07773 1.02387 0.0 
1.14195 0.997116 0.0 
1.06264 1.0197 0.0 
1.10856 1.01386 0.0 
1.0636 1.01509 0.0 
1.09725 1.00873 0.0 
1.09327 1.01254 0.0 
1.11445 1.00403 0.0 
1.16777 1.00039 0.0 
1.10903 1.00904 0.0 
1.16533 1.01223 0.0 
1.10914 1.01245 0.0 
1.10667 1.0083 0.0 
1.1795 1.00276 0.0 
1.17126 1.00714 0.0 
1.09057 1.01647 0.0 
1.07411 1.02575 0.0 
1.10812 1.00468 0.0 
1.08969 1.00807 0.0 
1.09427 1.01391 0.0 
1.11134 1.00793 0.0 
1.11416 1.00358 0.0 
1.08599 1.01055 0.0 
1.10997 1.01433 0.0 
1.10956 1.00859 0.0 
1.11346 1.00335 0.0 
1.06784 1.01374 0.0 
1.06362 1.01289 0.0 
1.10798 1.01109 0.0 
1.10147 1.01417 0.0 
1.08005 1.01311 0.0 
1.07432 1.01046 0.0 
1.10764 1.00479 0.0 
1.08465 1.00987 0.0 
1.07901 1.00923 0.0 
1.11049 1.00826 0.0 
1.06144 1.01526 0.0 
1.08253 1.02238 0.0 
1.08012 1.01142 0.0 
1.11242 1.0078 0.0 
1.07345 1.01202 0.0 
1.06973 1.01067 0.0 
1.14145 0.997154 0.0 
1.07345 1.02627 0.0 
1.1103 1.01353 0.0 
1.0951 1.02 0.0 
1.09424 1.02388 0.0 
1.17311 1.00738 0.0 
1.10078 1.00953 0.0 
1.08719 1.00958 0.0 
1.10089 1.00897 0.0 
1.09462 1.00874 0.0 
1.0997 1.02069 0.0 
1.06307 1.01724 0.0 
1.17198 1.00165 0.0 
1.08423 1.00873 0.0 
1.06426 1.01705 0.0 
1.17452 1.00468 0.0 
1.10395 1.01002 0.0 
1.17662 1.01032 0.0 
1.08388 1.0143 0.0 
[...]
<PointData>
  <DataArray type = "Float64" Name="Vitesse" NumberOfComponents="3" format="ascii">
-0.00818344 0.00206572 0.0 
0 0 0.0 
0 0 0.0 
-0.00361092 0.00038441 0.0 
-0.00663218 0.000221634 0.0 
0.752794 -0.0202265 0.0 
-0.0306132 0.00218123 0.0 
-0.0071205 0.000398559 0.0 
-0.0125882 0.000463579 0.0 
-0.0173007 0.000807614 0.0 
0 0 0.0 
-0.0234378 0.000995617 0.0 
-0.0115484 0.000325688 0.0 
-0.012749 0.00393098 0.0 
0.00445728 7.50476e-05 0.0 
-0.00431614 0.000668933 0.0 
0.0634263 -0.000191971 0.0 
0 0 0.0 
-0.000425419 0.00577968 0.0 
0.00252568 0.000214246 0.0 
-0.0086792 0.000517485 0.0 
0.00896639 0.00506517 0.0 
0.0160307 0.00454861 0.0 
0.938389 -0.01276 0.0 
-0.00265778 0.00415279 0.0 
-0.0120173 0.00358405 0.0 
0.0165944 -0.000960397 0.0 
-0.00575912 0.00468166 0.0 
0.0103661 -0.000197632 0.0 
-0.00826083 0.000772043 0.0 
0.0300586 -0.00178135 0.0 
0.165728 -0.0107165 0.0 
0.0240132 -0.00256352 0.0 
0.0695844 -0.00168036 0.0 
0.0307589 -0.00209227 0.0 
0.0856354 -0.00336605 0.0 
0.788043 -0.0227502 0.0 
-0.0124594 0.00107069 0.0 
0.0542178 -0.00210237 0.0 
-0.0226702 0.00133856 0.0 
-0.00651834 0.00205804 0.0 
-0.0277262 0.00149069 0.0 
-0.0153949 0.000872705 0.0 
-0.0297589 0.00276023 0.0 
0.0608106 -0.00150818 0.0 
-0.00603027 0.000602061 0.0 
0.00339423 0.00470677 0.0 
-0.0066288 0.00140541 0.0 
0 0 0.0 
0 0 0.0 
-0.0292773 0.00264078 0.0 
0.289612 -0.0142914 0.0 
0.0634644 -0.00389163 0.0 
0 0 0.0 
0 0 0.0 
0 0 0.0 
0.0494473 7.05051e-05 0.0 
-0.0205468 0.00588974 0.0 
-0.0104843 0.00713022 0.0 
-0.0296748 0.00339183 0.0 
-0.00621975 0.00154728 0.0 
0.0310136 0.00181887 0.0 
-0.016667 0.00502693 0.0 
-0.027565 0.00200998 0.0 
0 0 0.0 
0 0 0.0 
0 0 0.0 
-0.0165661 0.00159604 0.0 
-0.0130783 0.00138362 0.0 
0.179597 -0.0104379 0.0 
-0.00725413 0.000413285 0.0 
0 0 0.0 
-0.0230615 0.00176378 0.0 
0.0413749 0.00139635 0.0 
-0.0143246 0.00264394 0.0 
0 0 0.0 
-0.0267792 0.00240344 0.0 
-0.0172338 0.00113784 0.0 
-0.0140241 0.00524302 0.0 
-0.00362146 0.00636556 0.0 
-0.0119807 0.000890552 0.0 
-0.00125512 0.00440219 0.0 
-0.0304034 0.00208654 0.0 
-0.00847264 0.00494681 0.0 
-0.00738975 0.00144232 0.0 
-0.00629222 0.00182318 0.0 
0 0 0.0 
-0.00496834 0.000342251 0.0 
0.292785 -0.0163451 0.0 
0 0 0.0 
-0.00754028 0.00084186 0.0 
0.025648 0.00377939 0.0 
-0.0252725 0.00551898 0.0 
-0.00583564 0.00164201 0.0 
0 0 0.0 
-0.00626847 0.000530962 0.0 
0 0 0.0 
0.214921 -0.012451 0.0 
0.1057 -0.00518961 0.0 
-0.00602635 0.0016386 0.0 
0.137792 -0.00744288 0.0 
-0.0216718 0.0027862 0.0 
0.14437 -0.00845628 0.0 
-0.00380919 0.00490578 0.0 
0 0 0.0 
0.0454812 0.0015403 0.0 
0.020591 0.00337849 0.0 
0.111372 -0.00526555 0.0 
-0.010006 0.00673446 0.0 
-0.0138507 0.00436799 0.0 
0.0911437 -0.00337684 0.0 
0.00661284 0.00553378 0.0 
-0.000497496 0.00538778 0.0 
-0.0240227 0.00467729 0.0 
0 0 0.0 
-0.013221 0.00669115 0.0 
-0.00786747 0.00676353 0.0 
-0.0207103 0.00538213 0.0 
0.00020351 0.00608325 0.0 
-0.014688 0.00463148 0.0 
-0.0154561 0.00488246 0.0 
-0.0165033 0.00642557 0.0 
0.00364946 0.00563946 0.0 
-0.0049488 0.00157429 0.0 
0.486753 -0.0134829 0.0 
-0.00726859 0.00224329 0.0 
-0.0227445 0.00682128 0.0 
-0.01721 0.00562771 0.0 
0.450978 -0.0145788 0.0 
-0.0043524 0.00129207 0.0 
0 0 0.0 
0.00218459 0.00559035 0.0 
-0.0208984 0.00752854 0.0 
-0.00549556 0.00163798 0.0 
-0.00489164 0.00615671 0.0 
-0.00673137 0.00579597 0.0 
-0.0206888 0.00720957 0.0 
-0.0156458 0.00719299 0.0 
-0.00460086 0.00662418 0.0 
-0.00183214 0.00631298 0.0 
0 0 0.0 
-0.006995 0.0062103 0.0 
-0.0166527 0.0037284 0.0 
0 0 0.0 
-0.0108357 0.00341593 0.0 
0 0 0.0 
0 0 0.0 
-0.00454699 0.00139429 0.0 
-0.00974268 0.00287638 0.0 
-0.00053446 0.00597993 0.0 
0.00598405 0.00474911 0.0 
-0.00568636 0.00176306 0.0 
-0.00475079 0.00627479 0.0 
-0.0103301 0.00472263 0.0 
0 0 0.0 
-0.0196804 0.00762597 0.0 
-0.0125595 0.00399526 0.0 
0 0 0.0 
-0.0106696 0.00573944 0.0 
-0.0156171 0.00752527 0.0 
-0.0231493 0.00633129 0.0 
0 0 0.0 
-0.0124599 0.00159649 0.0 
-0.0255171 0.00622711 0.0 
-0.0170872 0.0055598 0.0 
-0.0101422 0.00179275 0.0 
0.000438137 0.0047086 0.0 
0 0 0.0 
-0.00559348 0.00163846 0.0 
-0.0161273 0.00635685 0.0 
-0.0227849 0.00387312 0.0 
-0.00947172 0.00286188 0.0 
-0.00639078 0.00183776 0.0 
-0.00903887 0.00278786 0.0 
0 0 0.0 
-0.0130563 0.00400797 0.0 
0 0 0.0 
0.00518608 0.00569673 0.0 
0 0 0.0 
0 0 0.0 
-0.0122309 0.00713791 0.0 
-0.0133634 0.00225505 0.0 
-0.00653199 0.000586902 0.0 
-0.0277414 0.00518554 0.0 
-0.0227947 0.00739162 0.0 
0 0 0.0 
-0.0216035 0.00239565 0.0 
0.2427 -0.0139818 0.0 
-0.0235166 0.00617771 0.0 
0.645351 -0.0317637 0.0 
0 0 0.0 
-0.0199739 0.00683085 0.0 
-0.0210945 0.00448356 0.0 
0 0 0.0 
-0.0218013 0.00715811 0.0 
0 0 0.0 
-0.0205132 0.00417874 0.0 
-0.0263722 0.00552125 0.0 
-0.0241189 0.00547635 0.0 
-0.00637747 0.00192141 0.0 
-0.0161027 0.00461701 0.0 
0 0 0.0 
-0.00724059 0.000870662 0.0 
-0.0116832 0.00266918 0.0 
0.0779721 -0.00184242 0.0 
0 0 0.0 
0 0 0.0 
-0.00860938 0.00530694 0.0 
-0.0114208 0.00641767 0.0 
0 0 0.0 
-0.00608963 0.00139046 0.0 
-0.0156303 0.00523427 0.0 
0 0 0.0 
-0.0115093 0.00176423 0.0 
0 0 0.0 
-0.007697 0.00682438 0.0 
-0.0106287 0.00304442 0.0 
0.012602 0.00393052 0.0 
-0.0242208 0.00681193 0.0 
0.0310309 0.00271314 0.0 
-0.0160405 0.00447778 0.0 
-0.0264783 0.00591 0.0 
-0.0100855 0.00119459 0.0 
0.000867956 0.00611229 0.0 
-0.00992074 0.00429293 0.0 
0.0113515 0.0047282 0.0 
0.728646 -0.0149824 0.0 
-0.0285984 0.00456206 0.0 
-0.0254403 0.00465497 0.0 
-0.0286528 0.00386374 0.0 
-0.0255744 0.00328328 0.0 
0.0367538 0.00264108 0.0 
-0.0235463 0.0034725 0.0 
-0.0279591 0.00492499 0.0 
-0.00689232 0.0010934 0.0 
-0.0179011 0.0061803 0.0 
-0.0184665 0.00755675 0.0 
-0.0293506 0.00414736 0.0 
0.113781 -0.00777359 0.0 
-0.0253374 0.00318165 0.0 
-0.00845415 0.00144564 0.0 
-0.0244682 0.00678114 0.0 
-0.00796147 0.00113848 0.0 
0.0223035 0.00391677 0.0 
0.0946448 -0.00656213 0.0 
0.434713 -0.0206008 0.0 
-0.0109544 0.00155576 0.0 
0 0 0.0 
-0.0228778 0.0021648 0.0 
-0.00935364 0.00609288 0.0 
0.0137956 0.00492988 0.0 
-0.0265951 0.00458537 0.0 
-0.0270692 0.003994 0.0 
-0.0175258 0.00271611 0.0 
-0.0110046 0.00293103 0.0 
-0.0286546 0.00381017 0.0 
-0.0166395 0.00201526 0.0 
-0.00539201 0.00100367 0.0 
-0.0196049 0.0035754 0.0 
-0.0200323 0.00636154 0.0 
-0.0144638 0.00358785 0.0 
-0.0121131 0.00252317 0.0 
0 0 0.0 
0 0 0.0 
0 0 0.0 
-0.00989782 0.00289096 0.0 
-0.0274285 0.00296935 0.0 
-0.020404 0.00505204 0.0 
-0.00670755 0.00147619 0.0 
-0.0171104 0.00346365 0.0 
-0.0303471 0.00310272 0.0 
-0.00661048 0.000893988 0.0 
0 0 0.0 
0 0 0.0 
0 0 0.0 
-0.00705734 0.00128504 0.0 
-0.0182275 0.00248057 0.0 
-0.0139788 0.00194655 0.0 
0.145205 -0.00928159 0.0 
0.376068 -0.018939 0.0 
0.0156189 -0.00175925 0.0 
0.0213718 -0.00118064 0.0 
-0.0034691 0.000629889 0.0 
0.00334128 -0.000896726 0.0 
-0.0122125 0.00431467 0.0 
0.330733 -0.0171506 0.0 
0.0184319 -2.36443e-05 0.0 
0.0843919 -0.00503314 0.0 
0.0938271 -0.00524228 0.0 
0.00303465 0.000255197 0.0 
0.450192 -0.0124917 0.0 
0.201466 -0.012307 0.0 
0.0254131 -0.00188753 0.0 
0.00270187 0.000696976 0.0 
0.113501 -0.00762355 0.0 
0.394146 -0.0197185 0.0 
-0.00476233 0.00115521 0.0 
0.208692 -0.0123725 0.0 
0.132002 -0.00688097 0.0 
0.0246547 -0.00846107 0.0 
0.0107575 -0.000313149 0.0 
-0.00454598 0.00172824 0.0 
0.252072 -0.011661 0.0 
0.00936363 0.000465285 0.0 
-0.00653475 0.000190968 0.0 
0.00427666 -0.000205198 0.0 
0.00356188 0.00401799 0.0 
0.522109 -0.014414 0.0 
0.369228 -0.0122722 0.0 
-0.00656464 0.000543576 0.0 
-0.0107435 0.00297298 0.0 
0.967287 -0.00664265 0.0 
-0.00430519 0.000221872 0.0 
0.00456584 -0.00031106 0.0 
0.900985 -0.00190406 0.0 
-0.0047017 0.00104004 0.0 
-0.0105281 -0.00444425 0.0 
0.802815 -0.0174209 0.0 
0 0 0.0 
0.424184 -0.0208569 0.0 
0.00837233 0.003868 0.0 
-0.0164065 0.00727969 0.0 
0.0043432 6.28514e-05 0.0 
0.796698 -0.00970997 0.0 
0.0120093 0.00119742 0.0 
-0.0040485 0.00142376 0.0 
-0.00423702 0.000303701 0.0 
0.324882 -0.017474 0.0 
0 0 0.0 
1.00487 0.0132397 0.0 
-0.00478352 0.0054787 0.0 
0.321953 -0.0174975 0.0 
0.148244 -0.00979376 0.0 
0.0843832 -0.00601739 0.0 
-0.00694066 0.000278798 0.0 
-0.0126078 0.00717152 0.0 
-0.00440785 0.00327015 0.0 
0.553074 -0.0129767 0.0 
0 0 0.0 
0.0110393 -0.00758316 0.0 
0 0 0.0 
0.29789 -0.0155361 0.0 
-0.0189918 0.00720104 0.0 
0.643507 -0.0245143 0.0 
0.102003 -0.00632359 0.0 
0.00364886 0.0018546 0.0 
-0.0055556 0.00108096 0.0 
0.0976468 -0.00558568 0.0 
0.0549476 -0.00384125 0.0 
-0.0124818 0.00580594 0.0 
-0.00299471 0.00102153 0.0 
0.0653529 -0.00225571 0.0 
0.15074 -0.00762161 0.0 
0 0 0.0 
0.186793 -0.0117893 0.0 
0.00125499 0.00180197 0.0 
-0.00966033 0.00663216 0.0 
0.481275 -0.0222713 0.0 
0.204741 -0.020716 0.0 
0.0382716 -0.00250489 0.0 
0.292076 -0.0148681 0.0 
0.538653 -0.0233209 0.0 
0.596047 -0.0240181 0.0 
-0.00715593 0.00158669 0.0 
-0.00136555 0.00365121 0.0 
-0.00810333 0.00342293 0.0 
0.365498 -0.0190812 0.0 
0.854171 -0.00849581 0.0 
-0.00713001 0.00226427 0.0 
6.14372e-05 -0.000502372 0.0 
0.65868 -0.0118064 0.0 
0.0973858 -0.00525376 0.0 
0 0 0.0 
-0.00595897 0.00164635 0.0 
0.223396 -0.0213846 0.0 
0 0 0.0 
0.00229215 0.00301916 0.0 
0.700997 -0.0203122 0.0 
0.154695 -0.00937112 0.0 
0.0178272 0.00274035 0.0 
0.0095298 0.00317626 0.0 
0.0561616 -0.0047675 0.0 
0.0897295 -0.00423581 0.0 
0.755922 -0.0114009 0.0 
0.825614 -0.0199673 0.0 
0.0304812 -0.0027218 0.0 
0.00198999 0.00375755 0.0 
0.00101748 0.00106213 0.0 
0.0109665 -0.00161518 0.0 
0.0415793 -0.000299814 0.0 
0.183677 -0.0192533 0.0 
0.00973779 -0.00746827 0.0 
-0.00196533 0.000713122 0.0 
0.0979305 -0.00507427 0.0 
0.220817 -0.0213235 0.0 
-0.00455655 0.000145346 0.0 
0.0686416 -0.00445852 0.0 
-0.0054328 0.00144074 0.0 
0.0306413 -0.00224838 0.0 
0 0 0.0 
0.0247402 -0.00875639 0.0 
0.0704422 -0.00552552 0.0 
0.0272301 0.00115211 0.0 
0.726002 -0.0136335 0.0 
0 0 0.0 
0.379216 -0.010281 0.0 
0.124089 -0.00697874 0.0 
0.0671713 -0.00407072 0.0 
-0.00526243 0.00122068 0.0 
0.0452302 -0.0032289 0.0 
-0.00852408 0.00244733 0.0 
-0.0215319 -0.00275861 0.0 
0.0041795 0.00254568 0.0 
0.208189 -0.0197504 0.0 
0.0771325 -0.00341599 0.0 
-0.004903 0.00272043 0.0 
0.00107752 -0.00523092 0.0 
0.0609963 -0.0114885 0.0 
0.197264 -0.011958 0.0 
0.878926 -0.00525979 0.0 
0 0 0.0 
0 0 0.0 
0.0906082 -0.00625059 0.0 
-0.00545141 0.00382908 0.0 
-0.00425271 0.00118401 0.0 
-0.000235875 0.000184408 0.0 
0.146538 -0.00833036 0.0 
-0.000438999 0.00302375 0.0 
0 0 0.0 
0.027971 -0.00244849 0.0 
0.00264399 -0.000376849 0.0 
0.0385262 -0.000511621 0.0 
0.118137 -0.0076263 0.0 
0.0347113 -0.00302116 0.0 
-0.00575546 0.00025325 0.0 
0 0 0.0 
-0.00396792 0.000486428 0.0 
0 0 0.0 
-0.00303075 0.00344297 0.0 
0.0699947 -0.00404956 0.0 
0.600566 -0.0180309 0.0 
0.00284145 -0.000415479 0.0 
-0.00595677 0.00420087 0.0 
0.00200489 -0.000875168 0.0 
-0.00653421 0.000386971 0.0 
0 0 0.0 
0.916165 -0.00263443 0.0 
0.116549 -0.00625095 0.0 
0.428589 -0.0200645 0.0 
0.706514 -0.0217651 0.0 
0.0701004 -0.0123464 0.0 
0.00202616 0.00110286 0.0 
-0.00429344 0.000581754 0.0 
-0.0027266 0.00150107 0.0 
-0.00518994 0.000994745 0.0 
0.482706 -0.021741 0.0 
0.183878 -0.0082944 0.0 
-0.0155813 -0.00418244 0.0 
0 0 0.0 
0.173857 -0.00824855 0.0 
0.0174548 -0.00819372 0.0 
0.0117468 0.000857959 0.0 
0.1636 -0.0187496 0.0 
0.080848 -0.00584467 0.0 
-0.012046 0.00367121 0.0 
0.772594 -0.00897259 0.0 
0.00964387 -0.00121188 0.0 
0.0314376 -0.00944003 0.0 
0.0608453 -0.00356856 0.0 
0.0128207 0.00160088 0.0 
0.0271271 -0.00131015 0.0 
0.127998 -0.00708158 0.0 
0.111262 -0.0153377 0.0 
0.0101823 -0.000801572 0.0 
0.141273 -0.00915018 0.0 
0.00378007 -1.41446e-05 0.0 
0.0633186 -0.0118865 0.0 
-0.00361952 0.000650026 0.0 
0.0400858 -0.00332898 0.0 
0.228865 -0.0136965 0.0 
-0.00116523 0.000929465 0.0 
0.0373381 -0.00274403 0.0 
0.0841685 -0.00596955 0.0 
0.504431 -0.0206376 0.0 
0.0297403 -0.00209825 0.0 
-0.00610272 0.000162085 0.0 
0.264754 -0.0103563 0.0 
-0.0174071 -0.00325555 0.0 
0.0134478 -0.00768453 0.0 
0.0175711 -0.00792653 0.0 
0 0 0.0 
0.0788352 -0.00383756 0.0 
0.00647144 -0.000834672 0.0 
-0.00507665 0.000281169 0.0 
-0.0029878 -0.00477242 0.0 
0.664526 -0.0229541 0.0 
0.569662 -0.0232328 0.0 
-0.00582575 0.00110692 0.0 
-0.00816529 -0.00103016 0.0 
0.0190114 -0.000407042 0.0 
0.0386922 -0.00299099 0.0 
-0.00660762 -0.00381561 0.0 
0.606184 -0.0318869 0.0 
0.328111 -0.0110775 0.0 
0.211893 -0.0101779 0.0 
0.642101 -0.0220671 0.0 
0.214402 -0.0112282 0.0 
0.0093521 0.000774969 0.0 
-0.00438897 0.000175927 0.0 
0.347573 -0.0157544 0.0 
0.00691295 -0.000247422 0.0 
-0.00700424 -0.00419449 0.0 
0.0093803 -0.00100226 0.0 
0.136376 -0.00908039 0.0 
0.67243 -0.0171913 0.0 
-0.00346008 0.000555928 0.0 
0.0155257 -0.00149684 0.0 
0.00471942 0.000625626 0.0 
0.0439531 -0.00251919 0.0 
0.197277 -0.0115413 0.0 
-0.0070498 0.00161308 0.0 
0 0 0.0 
0.0402693 -0.00367475 0.0 
0.0107266 -0.000611276 0.0 
0.195082 -0.0083511 0.0 
0.363922 -0.0148488 0.0 
0.0186952 -0.00115266 0.0 
0.613422 -0.00763275 0.0 
0.00060873 0.000433524 0.0 
0.108099 -0.00563187 0.0 
0.0326392 -0.0033071 0.0 
-0.0122582 -0.000906334 0.0 
-0.00416541 0.00103888 0.0 
-0.000478427 0.00048793 0.0 
0.0646445 -0.00458798 0.0 
0.208278 -0.0127994 0.0 
0 0 0.0 
0.00691081 -0.0062933 0.0 
0.700958 -0.00907544 0.0 
0.415914 -0.0183382 0.0 
-0.0141872 -0.00363185 0.0 
0.0529192 -0.00465525 0.0 
0.00540604 -0.00706377 0.0 
-0.00559677 0.000401238 0.0 
0.032177 -0.00302258 0.0 
0.0582196 -0.00195925 0.0 
-0.00163889 -0.00557535 0.0 
-0.00344089 0.000629197 0.0 
0.0792446 -0.00621993 0.0 
0.113998 -0.00771857 0.0 
0.315549 -0.016325 0.0 
-0.0105493 0.00334812 0.0 
0 0 0.0 
0.0329702 -0.00949417 0.0 
-0.0042693 0.000941294 0.0 
0.250418 -0.0107358 0.0 
0.5478 -0.019191 0.0 
-0.00365988 0.000665356 0.0 
-0.00648606 0.000401061 0.0 
0.237265 -0.0131269 0.0 
0.00503786 0.00132023 0.0 
0.00614548 -0.000708116 0.0 
0 0 0.0 
-0.00519971 0.00113831 0.0 
0.00640499 -0.00704586 0.0 
0.012432 -6.91737e-05 0.0 
0.000102151 0.000987616 0.0 
0.10986 -0.00755916 0.0 
0.240808 -0.0141065 0.0 
-0.00955125 -0.00335022 0.0 
0.00846597 -0.00039855 0.0 
0.119272 -0.00806388 0.0 
0.160192 -0.0101811 0.0 
-0.0048535 5.39634e-05 0.0 
0.0115494 -0.00710993 0.0 
0.0329699 -0.00104793 0.0 
0 0 0.0 
-0.00412384 0.000898353 0.0 
0.129385 -0.00790176 0.0 
0.0987118 -0.0072386 0.0 
-0.00391381 -0.000133402 0.0 
0.0653892 -0.00475478 0.0 
0 0 0.0 
-0.00358091 0.000545185 0.0 
0.00906142 -0.000337955 0.0 
0.0297114 -0.00304056 0.0 
0.0528684 -0.0107153 0.0 
0 0 0.0 
0 0 0.0 
0 0 0.0 
-0.00358305 0.000644957 0.0 
0.00797286 -0.000208284 0.0 
-0.0182779 -0.00120918 0.0 
0 0 0.0 
0.946898 -0.0101391 0.0 
0 0 0.0 
0 0 0.0 
0.256504 -0.0149062 0.0 
-0.00545342 -0.000680265 0.0 
-0.00398725 0.000709458 0.0 
0.0594771 -0.00389705 0.0 
-0.00484822 -0.00488189 0.0 
0.0141089 -0.0078414 0.0 
0.0485501 -0.00353272 0.0 
-0.00510231 0.000201994 0.0 
-0.00290023 0.000355285 0.0 
0.00241126 0.000553672 0.0 
0 0 0.0 
-0.00308067 0.000474946 0.0 
0.755361 -0.0175974 0.0 
0.0392153 -0.00259992 0.0 
0.00479106 0.000246388 0.0 
0.00316449 0.0023467 0.0 
-0.00508742 0.000855464 0.0 
-0.000767909 -0.00621366 0.0 
0.179443 -0.0111537 0.0 
-0.0034352 0.00210746 0.0 
-0.00378982 0.000759417 0.0 
0.0217069 0.000154754 0.0 
0.000320147 0.00232328 0.0 
0.0679085 -0.00486723 0.0 
-0.00111138 0.00038964 0.0 
-0.00360568 0.00039748 0.0 
0.0011209 0.000110911 0.0 
0.109171 -0.00610233 0.0 
0.0164761 -0.00808531 0.0 
0.17191 -0.0087844 0.0 
-0.000473653 -0.000360154 0.0 
-0.00590674 0.00136516 0.0 
0.0698775 -0.00362085 0.0 
0.0112499 -0.000525623 0.0 
0.128833 -0.00874341 0.0 
0 0 0.0 
0.135262 -0.00900296 0.0 
0.0573282 -0.0041808 0.0 
0.0213089 -0.00134636 0.0 
0 0 0.0 
-0.000875087 -0.000537996 0.0 
-0.00810845 0.00270999 0.0 
-0.0107731 0.00293013 0.0 
-0.00216143 0.000365536 0.0 
0.558588 -0.0100242 0.0 
-0.00654126 0.00167044 0.0 
0 0 0.0 
0.540603 -0.0119197 0.0 
0.632658 -0.0167561 0.0 
0.211709 -0.0119667 0.0 
0.616599 -0.00938762 0.0 
-0.00335947 -0.000260266 0.0 
0 0 0.0 
0.00151682 -0.000598125 0.0 
-0.00787568 0.00194035 0.0 
0.767811 -0.0123983 0.0 
0 0 0.0 
-0.00313388 0.000338024 0.0 
0.212479 -0.0125966 0.0 
0 0 0.0 
0.0580532 -0.00450156 0.0 
0.0086867 7.71181e-05 0.0 
0 0 0.0 
0.682251 -0.0153717 0.0 
0.0882599 -0.00615035 0.0 
-0.00396296 0.00101096 0.0 
0.0106218 0.00223047 0.0 
-0.0124432 -0.00356585 0.0 
-0.00197455 0.000463427 0.0 
-0.00338358 0.000385902 0.0 
-0.00742386 0.000311884 0.0 
0.732033 -0.00510764 0.0 
0.601901 -0.0228937 0.0 
0.180393 -0.0106516 0.0 
0.152509 -0.0072218 0.0 
-0.00104396 0.000119939 0.0 
0.245598 -0.0141365 0.0 
0 0 0.0 
0.156408 -0.0101173 0.0 
0.68117 -0.00645983 0.0 
0.0119135 -0.000828479 0.0 
0.004113 -0.000877982 0.0 
-0.00209801 0.00131553 0.0 
0.0162014 -0.000997476 0.0 
0.0185052 -0.00183896 0.0 
0.0397218 -0.0027856 0.0 
0.0547017 -0.00440621 0.0 
-0.00169232 7.27245e-05 0.0 
0.221653 -0.0130465 0.0 
-0.00834958 0.00311862 0.0 
-0.00943186 -0.0041389 0.0 
0.46098 -0.0184014 0.0 
0.261927 -0.0145145 0.0 
0.169804 -0.0107091 0.0 
0.0404976 -0.0100836 0.0 
0.016953 -0.00739106 0.0 
0.282472 -0.0131147 0.0 
0.198377 -0.0118422 0.0 
0.00297513 0.000571587 0.0 
-0.00676606 0.000503985 0.0 
0.00204278 0.000148467 0.0 
0.436813 -0.0197913 0.0 
-0.00312286 0.000454735 0.0 
0.0633099 -0.00350632 0.0 
0.0186525 -0.000799696 0.0 
-0.00565956 0.00112851 0.0 
0.507152 -0.0224109 0.0 
0.694763 -0.0135955 0.0 
0.0587404 -0.00439291 0.0 
0.373801 -0.0170186 0.0 
-0.00342505 0.000731051 0.0 
0.75334 -0.0235706 0.0 
0.456362 -0.0195374 0.0 
0.302543 -0.00967761 0.0 
-0.006599 0.00148867 0.0 
0.142012 -0.0067559 0.0 
0.17646 -0.0108017 0.0 
0.0304729 -0.00211328 0.0 
0.559361 -0.021808 0.0 
0.246182 -0.0183129 0.0 
0.0565503 -0.00386499 0.0 
0.905686 -0.0115464 0.0 
0.00993079 -0.00139517 0.0 
-0.00261175 -0.00619122 0.0 
-0.00700944 0.000572009 0.0 
0.0102172 -0.000444492 0.0 
-0.0141053 0.0051722 0.0 
-0.0044145 0.00195287 0.0 
0.193141 -0.0117739 0.0 
0.631295 -0.020241 0.0 
0.171943 -0.0108637 0.0 
0.0285657 -0.00273652 0.0 
-0.0103817 0.00383765 0.0 
0.0599122 -0.00183807 0.0 
-0.00299102 0.00057561 0.0 
-0.00779387 0.00197051 0.0 
0.0492992 -0.00333655 0.0 
0.012751 -0.00110067 0.0 
0.185204 -0.0114606 0.0 
0 0 0.0 
-0.00403307 0.000828789 0.0 
-0.00404249 0.000492055 0.0 
0 0 0.0 
0.00143256 -0.000764926 0.0 
-0.00404597 0.000373809 0.0 
0.179996 -0.0101035 0.0 
0 0 0.0 
0.894698 -0.00606338 0.0 
0.584049 -0.020022 0.0 
0.0233207 0.000511046 0.0 
0.00252207 -0.000630269 0.0 
0.690629 -0.0184823 0.0 
0.147902 -0.0096173 0.0 
0.276548 -0.0156857 0.0 
0.480359 -0.0192096 0.0 
-0.000185636 7.4576e-05 0.0 
-0.0195887 -0.00251112 0.0 
-0.00399587 0.000255852 0.0 
-0.00224684 0.000274435 0.0 
0.250589 -0.0139106 0.0 
-0.00427717 0.000986001 0.0 
0.372246 -0.0185065 0.0 
0.00284093 -0.000625681 0.0 
0.00015432 8.89295e-05 0.0 
0.135824 -0.00904862 0.0 
0.0214251 -0.00149224 0.0 
0.0982195 -0.00722692 0.0 
0.00258844 -0.000630808 0.0 
-0.00607697 0.000396291 0.0 
0.411485 -0.0114439 0.0 
1.60858e-05 -0.00550062 0.0 
-0.00429234 0.000872664 0.0 
0.215822 -0.0129628 0.0 
0.046161 -0.00340124 0.0 
0 0 0.0 
1.00285 0.00622718 0.0 
0.00441769 -0.000355309 0.0 
0.841792 -0.00741486 0.0 
-0.00833612 0.00065009 0.0 
0.0419539 -0.00267297 0.0 
0.159367 -0.0102731 0.0 
0.880035 -0.00113513 0.0 
0.00196201 -0.000308373 0.0 
-0.00341124 0.000468374 0.0 
0.0914093 -0.00680188 0.0 
-0.0050683 0.00305534 0.0 
-0.00585692 0.000137894 0.0 
-0.00492332 0.00117685 0.0 
0.0483589 -0.00411138 0.0 
0.0798965 -0.00519877 0.0 
-0.00259679 0.000438201 0.0 
-0.00258779 -0.000125912 0.0 
-0.0031178 0.00021538 0.0 
0 0 0.0 
0.178758 -0.0111244 0.0 
0.0725625 -0.00506238 0.0 
0.00264758 -0.000784983 0.0 
-0.00518706 4.48496e-05 0.0 
0.0393082 -0.00321484 0.0 
0.118508 -0.0156226 0.0 
0.0123453 -0.00147069 0.0 
-0.00358375 0.000369436 0.0 
0 0 0.0 
0.348292 -0.0169105 0.0 
-0.00670999 0.00193085 0.0 