<VTKFile type="UnstructuredGrid" version="0.1" byte_order="LittleEndian">
  <UnstructuredGrid>
    <Piece NumberOfPoints="14532" NumberOfCells="28389">
      <Points>
        <DataArray type = "Float64" NumberOfComponents="3" format="ascii">
1.14461 1.00953 0.0 
1.1626 1.0011 0.0 
1.26817 1.00781 0.0 
1.36639 1.00332 0.0 
1.17409 1.00271 0.0 
1.18127 1.00311 0.0 
1.14366 1.00778 0.0 
1.24235 1.03407 0.0 
1.19721 1.00358 0.0 
1.41129 1.02118 0.0 
1.17028 1.00697 0.0 
1.37743 1.01033 0.0 
1.17888 1.01402 0.0 
1.5669 1.01166 0.0 
1.18334 1.00314 0.0 
1.16682 1.00403 0.0 
1.30648 1.02963 0.0 
1.14837 1.00016 0.0 
1.21607 1.02257 0.0 
1.21107 1.0297 0.0 
1.20838 1.00473 0.0 
1.1716 1.01139 0.0 
1.18425 1.01624 0.0 
1.17469 1.01219 0.0 
1.20187 1.00399 0.0 
1.1546 1.00671 0.0 
1.16127 1.00259 0.0 
1.53223 1.01495 0.0 
1.15502 1.00887 0.0 
1.43498 1.03054 0.0 
1.19289 1.00326 0.0 
1.15235 0.998206 0.0 
1.16703 1.00874 0.0 
1.32339 1.041 0.0 
1.1572 1.00417 0.0 
1.38881 1.00155 0.0 
1.27947 1.04284 0.0 
1.17878 0.999762 0.0 
1.19167 1.00151 0.0 
1.17988 1.00525 0.0 
1.192 1.00019 0.0 
1.16128 1.00895 0.0 
1.19203 1.00077 0.0 
1.19175 1.00018 0.0 
1.16242 1.00322 0.0 
1.20617 1.00468 0.0 
1.15613 1.00905 0.0 
1.45721 1.02377 0.0 
1.16269 1.00475 0.0 
1.18326 1.00131 0.0 
1.38953 1.02394 0.0 
1.20244 1.00441 0.0 
1.21946 1.02919 0.0 
1.20361 1.00396 0.0 
1.15617 1.00964 0.0 
1.16465 1.00161 0.0 
1.15566 1.0082 0.0 
1.14304 1.00692 0.0 
1.33223 1.04555 0.0 
1.45216 1.01952 0.0 
1.20313 1.00473 0.0 
1.13631 0.99901 0.0 
1.23954 1.03527 0.0 
1.19085 1.00149 0.0 
1.19143 1.00322 0.0 
1.15955 0.999204 0.0 
1.19213 1.00286 0.0 
1.22483 1.00664 0.0 
1.19124 1.00083 0.0 
1.20928 1.02761 0.0 
1.17452 1.00196 0.0 
1.21233 1.00435 0.0 
1.17651 1.00012 0.0 
1.17362 0.999786 0.0 
1.17159 1.00438 0.0 
1.24885 1.00027 0.0 
1.5035 1.00999 0.0 
1.16962 0.99802 0.0 
1.14662 1.00948 0.0 
1.14607 1.00868 0.0 
1.15788 1.00521 0.0 
1.37407 1.03049 0.0 
1.16003 1.00199 0.0 
1.60793 1.02947 0.0 
1.1365 0.999713 0.0 
1.38602 1.02873 0.0 
1.53125 1.00769 0.0 
1.43167 1.00758 0.0 
1.1807 1.00388 0.0 
1.19565 1.00362 0.0 
1.24266 1.01039 0.0 
1.20688 1.02872 0.0 
1.14568 0.998445 0.0 
1.15534 1.00194 0.0 
1.24732 1.00145 0.0 
1.63532 1.02782 0.0 
1.19525 1.00456 0.0 
1.17655 1.00087 0.0 
1.46875 1.01592 0.0 
1.18373 1.01357 0.0 
1.21258 1.02888 0.0 
1.14836 1.00976 0.0 
1.18785 1.00102 0.0 
1.14915 1.00778 0.0 
1.33317 1.04303 0.0 
1.52404 1.01928 0.0 
1.17713 1.00387 0.0 
1.14971 1.00519 0.0 
1.18799 1.00564 0.0 
1.17797 1.01289 0.0 
1.17123 0.999464 0.0 
1.14336 1.0095 0.0 
1.45128 1.01578 0.0 
1.1469 0.997381 0.0 
1.16381 1.01052 0.0 
1.1718 1.00629 0.0 
1.16825 1.00652 0.0 
1.66382 1.02485 0.0 
1.46963 1.02989 0.0 
1.25525 1.02091 0.0 
1.2186 1.0074 0.0 
1.18498 1.00573 0.0 
1.1754 1.00843 0.0 
1.37846 1.03987 0.0 
1.15165 1.00965 0.0 
1.18779 1.00855 0.0 
1.15889 1.00576 0.0 
1.191 1.0001 0.0 
1.18472 1.00267 0.0 
1.13934 0.998182 0.0 
1.60658 1.02363 0.0 
1.20892 1.00576 0.0 
1.23964 1.00131 0.0 
1.58383 1.00513 0.0 
1.23202 0.99937 0.0 
1.1707 1.00163 0.0 
1.18689 1.00374 0.0 
1.13702 0.998484 0.0 
1.16016 1.01027 0.0 
1.18083 0.998959 0.0 
1.15134 1.00401 0.0 
1.32806 1.02551 0.0 
1.19381 1.00289 0.0 
1.19295 0.998378 0.0 
1.16563 1.00605 0.0 
1.16362 1.00247 0.0 
1.172 1.0038 0.0 
1.15351 1.00868 0.0 
1.19036 1.0079 0.0 
1.21269 1.00808 0.0 
1.13983 1.00975 0.0 
1.21366 1.02713 0.0 
1.39171 1.01909 0.0 
1.41113 1.00519 0.0 
1.20293 1.02091 0.0 
1.16937 1.00374 0.0 
1.22311 1.02727 0.0 
1.20188 1.02385 0.0 
1.17977 1.00839 0.0 
1.61342 1.00997 0.0 
1.18206 1.00801 0.0 
1.18837 1.01882 0.0 
1.14369 1.00085 0.0 
1.18661 1.00527 0.0 
1.60342 1.00659 0.0 
1.18638 1.00072 0.0 
1.16432 1.00387 0.0 
1.40982 1.00864 0.0 
1.20712 1.02555 0.0 
1.16987 0.999004 0.0 
1.40038 1.00564 0.0 
1.15884 1.00787 0.0 
1.20979 0.998086 0.0 
1.42299 1.00491 0.0 
1.235 1.00827 0.0 
1.15221 1.00823 0.0 
1.39444 1.02195 0.0 
1.21913 1.0064 0.0 
1.16332 0.997651 0.0 
1.34382 1.02557 0.0 
1.30771 1.03664 0.0 
1.25403 1.03448 0.0 
1.40181 1.00389 0.0 
1.19352 1.00553 0.0 
1.16528 1.0083 0.0 
1.63847 1.01697 0.0 
1.20265 1.00718 0.0 
1.29241 0.999411 0.0 
1.49166 1.02385 0.0 
1.2172 1.03115 0.0 
1.17086 0.998838 0.0 
1.20049 1.00448 0.0 
1.20218 1.02635 0.0 
1.16986 1.00568 0.0 
1.61189 1.01452 0.0 
1.22643 1.028 0.0 
1.41301 1.01991 0.0 
1.17616 1.00508 0.0 
1.17434 0.999296 0.0 
1.50592 1.02043 0.0 
1.30522 1.03841 0.0 
1.16236 1.00182 0.0 
1.15236 1.00936 0.0 
1.26012 1.0003 0.0 
1.15906 1.00334 0.0 
1.15129 1.01002 0.0 
1.17766 1.00818 0.0 
1.18679 0.999585 0.0 
1.17103 0.99812 0.0 
1.16989 1.00497 0.0 
1.14379 1.00579 0.0 
1.15545 1.00367 0.0 
1.18455 0.99934 0.0 
1.22873 1.00961 0.0 
1.15331 1.00443 0.0 
1.19298 1.01967 0.0 
1.18112 1.00699 0.0 
1.17301 1.00152 0.0 
1.18279 1.00601 0.0 
1.43211 1.01791 0.0 
1.18417 1.00452 0.0 
1.5148 1.00706 0.0 
1.15767 1.00893 0.0 
1.26567 1.00006 0.0 
1.15725 0.998456 0.0 
1.17148 0.998718 0.0 
1.20111 1.02763 0.0 
1.22353 1.00878 0.0 
1.16993 1.00085 0.0 
1.16524 1.00871 0.0 
1.49908 1.00653 0.0 
1.15526 1.00934 0.0 
1.18941 1.00522 0.0 
1.25777 1.00035 0.0 
1.1608 1.00649 0.0 
1.16767 1.00075 0.0 
1.17732 0.998631 0.0 
1.15575 1.00858 0.0 
1.21745 0.99955 0.0 
1.15324 1.00183 0.0 
1.48251 1.01402 0.0 
1.16094 1.00137 0.0 
1.45743 1.00558 0.0 
1.19026 1.00001 0.0 
1.20478 1.02485 0.0 
1.1867 1.00676 0.0 
1.43714 1.00457 0.0 
1.14117 0.999861 0.0 
1.15605 1.00279 0.0 
1.18482 1.01523 0.0 
1.1835 1.00529 0.0 
1.19397 1.01819 0.0 
1.35247 1.00207 0.0 
1.16954 0.999633 0.0 
1.19613 1.02119 0.0 
1.5671 1.00471 0.0 
1.19222 1.00211 0.0 
1.16964 1.00818 0.0 
1.18747 1.00807 0.0 
1.41374 1.01059 0.0 
1.15895 1.00264 0.0 
1.19013 1.00273 0.0 
1.18961 1.007 0.0 
1.22485 1.02324 0.0 
1.20049 1.02885 0.0 
1.16442 1.00687 0.0 
1.15393 1.00592 0.0 
1.15677 0.997411 0.0 
1.18443 0.999811 0.0 
1.17347 1.00069 0.0 
1.16971 1.00241 0.0 
1.14248 0.99849 0.0 
1.19201 1.00361 0.0 
1.19043 1.01746 0.0 
1.14 0.997664 0.0 
1.23332 1.02199 0.0 
1.1901 1.00198 0.0 
1.1609 0.998232 0.0 
1.16912 1.00127 0.0 
1.14461 0.999214 0.0 
1.15561 0.999395 0.0 
1.2058 1.00637 0.0 
1.19087 1.00486 0.0 
1.41521 1.03013 0.0 
1.1856 1.00427 0.0 
1.17903 1.00423 0.0 
1.21908 1.02828 0.0 
1.15321 1.00906 0.0 
1.16194 0.998763 0.0 
1.18812 1.00666 0.0 
1.16927 1.00029 0.0 
1.16156 1.00397 0.0 
1.61287 1.01208 0.0 
1.14935 1.00159 0.0 
1.16769 1.00793 0.0 
1.16341 1.00549 0.0 
1.15338 1.0026 0.0 
1.14873 1.00852 0.0 
1.14983 0.998529 0.0 
1.18404 1.00868 0.0 
1.18024 1.00031 0.0 
1.16719 1.00155 0.0 
1.17189 1.00099 0.0 
1.18849 1.00618 0.0 
1.20715 1.00477 0.0 
1.21395 1.03034 0.0 
1.18761 1.00175 0.0 
1.26365 1.0003 0.0 
1.17864 1.00483 0.0 
1.15641 1.00062 0.0 
1.18122 1.0046 0.0 
1.20418 1.02958 0.0 
1.17903 1.00342 0.0 
1.1694 1.0075 0.0 
1.52506 1.00587 0.0 
1.1714 1.00304 0.0 
1.28469 1.04607 0.0 
1.1752 0.999064 0.0 
1.17523 1.00614 0.0 
1.46848 1.00554 0.0 
1.17369 1.00815 0.0 
1.15979 0.998083 0.0 
1.14333 1.00419 0.0 
1.21336 1.02154 0.0 
1.14549 1.00968 0.0 
1.19867 1.005 0.0 
1.57951 1.03423 0.0 
1.13981 1.00859 0.0 
1.21286 1.02518 0.0 
1.2364 1.01852 0.0 
1.18344 0.999783 0.0 
1.17908 1.00274 0.0 
1.18612 1.00724 0.0 
1.17367 1.00337 0.0 
1.18656 1.00023 0.0 
1.26892 1.00039 0.0 
1.17483 1.00897 0.0 
1.17646 0.99949 0.0 
1.20978 1.00454 0.0 
1.18974 1.00065 0.0 
1.1606 0.998808 0.0 
1.1782 1.00137 0.0 
1.60655 1.00067 0.0 
1.25423 1.01307 0.0 
1.17224 1.00226 0.0 
1.20322 1.00649 0.0 
1.15684 1.00875 0.0 
1.36899 1.02053 0.0 
1.20457 1.02801 0.0 
1.48471 1.01154 0.0 
1.26363 1.00712 0.0 
1.17484 1.00119 0.0 
1.14312 1.00301 0.0 
1.16545 1.00465 0.0 
1.23313 1.00738 0.0 
1.14113 1.00074 0.0 
1.22372 1.02543 0.0 
1.23593 1.00038 0.0 
1.166 1.00097 0.0 
1.17772 0.999236 0.0 
1.22091 0.998974 0.0 
1.28757 0.999892 0.0 
1.14272 0.998004 0.0 
1.14265 1.00181 0.0 
1.2108 1.00425 0.0 
1.14112 0.998487 0.0 
1.17361 0.998316 0.0 
1.18187 1.00749 0.0 
1.20571 1.00507 0.0 
1.30004 1.00042 0.0 
1.19441 1.00346 0.0 
1.14093 1.00904 0.0 
1.26217 1.01632 0.0 
1.14336 1.00906 0.0 
1.17817 1.00216 0.0 
1.26387 1.03313 0.0 
1.13697 1.00049 0.0 
1.32716 1.02855 0.0 
1.16588 1.00012 0.0 
1.1444 0.997451 0.0 
1.55226 1.01331 0.0 
1.18873 1.00208 0.0 
1.18812 1.00766 0.0 
1.574 1.00376 0.0 
1.15081 1.00877 0.0 
1.63179 1.03272 0.0 
1.13931 1.0095 0.0 
1.19349 1.00442 0.0 
1.37116 1.02559 0.0 
1.19122 1.00242 0.0 
1.1876 1.00247 0.0 
1.18888 1.00799 0.0 
1.1896 1.00752 0.0 
1.17601 0.99898 0.0 
1.14803 1.00944 0.0 
1.19901 1.00434 0.0 
1.63942 1.02083 0.0 
1.27836 1.03676 0.0 
1.17933 0.998815 0.0 
1.18757 1.00721 0.0 
1.17548 0.998471 0.0 
1.14684 1.00975 0.0 
1.2089 1.02317 0.0 
1.36307 1.02974 0.0 
1.14325 1.00002 0.0 
1.62475 1.01944 0.0 
1.16141 0.999604 0.0 
1.22171 1.03371 0.0 
1.26173 1.01368 0.0 
1.25045 1.03041 0.0 
1.17247 1.00911 0.0 
1.47892 1.02683 0.0 
1.25433 1.03574 0.0 
1.18601 1.00838 0.0 
1.16885 1.00202 0.0 
1.1852 1.0069 0.0 
1.21619 0.99854 0.0 
1.25248 1.03133 0.0 
1.62389 1.00742 0.0 
1.18461 1.00756 0.0 
1.19054 1.00074 0.0 
1.17736 1.0087 0.0 
1.18006 0.999476 0.0 
1.46819 1.01373 0.0 
1.66479 1.01219 0.0 
1.15881 0.998443 0.0 
1.14532 1.0034 0.0 
1.18283 1.00228 0.0 
1.16098 1.00861 0.0 
1.16489 0.99773 0.0 
1.18249 0.99962 0.0 
1.18735 1.00624 0.0 
1.27761 1.03129 0.0 
1.35736 1.00293 0.0 
1.24312 1.01678 0.0 
1.18778 1.00313 0.0 
1.34715 1.00321 0.0 
1.16782 1.00992 0.0 
1.59886 0.999254 0.0 
1.18344 0.999225 0.0 
1.24655 1.0289 0.0 
1.15136 0.998365 0.0 
1.17368 1.0097 0.0 
1.21827 1.02363 0.0 
1.20894 1.00418 0.0 
1.2291 1.03077 0.0 
1.19625 1.00422 0.0 
1.21103 1.00465 0.0 
1.45038 1.01792 0.0 
1.40067 1.00795 0.0 
1.53438 1.02344 0.0 
1.38144 1.00853 0.0 
1.17223 0.999659 0.0 
1.25399 1.01002 0.0 
1.19088 1.00731 0.0 
1.18526 1.00035 0.0 
1.45349 1.01355 0.0 
1.14112 0.999049 0.0 
1.18542 0.999435 0.0 
1.1904 1.00603 0.0 
1.25062 1.0062 0.0 
1.32235 1.02751 0.0 
1.1544 1.01007 0.0 
1.21317 1.00648 0.0 
1.17967 1.009 0.0 
1.30814 1.04382 0.0 
[...]
<PointData>
  <DataArray type = "Float64" Name="Vitesse" NumberOfComponents="3" format="ascii">
-0.00269589 0.000305381 0.0 
-0.048513 -0.00234676 0.0 
0.174424 -0.0221818 0.0 
0.258389 -0.017872 0.0 
-0.0474247 -0.00546206 0.0 
-0.0395758 -0.00649356 0.0 
-0.0310096 0.0022885 0.0 
0.983778 -0.0537111 0.0 
-0.0221657 0.0142554 0.0 
0.788196 -0.0357687 0.0 
-0.0225848 -0.00826917 0.0 
0.464514 -0.0295259 0.0 
0.172985 -0.0201778 0.0 
0.660719 -0.0142581 0.0 
-0.0366411 -0.00644256 0.0 
-0.0518322 -0.00493253 0.0 
0.911253 -0.0568897 0.0 
-0.0413926 0.000871316 0.0 
0.617667 -0.0396288 0.0 
0.879338 -0.0465511 0.0 
0.00213408 0.00268913 0.0 
0.0747963 -0.0136544 0.0 
0.270977 -0.0248 0.0 
0.103801 -0.0160253 0.0 
-0.0143206 0.00892593 0.0 
-0.037332 -0.00176495 0.0 
-0.0558976 -0.00256473 0.0 
0.712762 -0.0178391 0.0 
-0.00457236 -0.00365132 0.0 
0.937332 -0.0337537 0.0 
-0.0305678 0.00997321 0.0 
-0.0156857 -7.54118e-05 0.0 
0.00465293 -0.00873961 0.0 
1.01872 -0.0533985 0.0 
-0.0557568 -0.00174269 0.0 
0.264422 -0.0140194 0.0 
1.04132 -0.0552459 0.0 
-0.017169 -0.00173344 0.0 
-0.0233092 0.00174571 0.0 
-0.0330198 -0.0089913 0.0 
0 0 0.0 
0.00295 -0.0063961 0.0 
-0.0131344 -9.99613e-05 0.0 
0 0 0.0 
-0.0557307 -0.00318183 0.0 
-0.000955739 0.00441613 0.0 
-0.000269805 -0.00427243 0.0 
0.853252 -0.0289607 0.0 
-0.0507419 -0.00395871 0.0 
-0.028209 -0.00371119 0.0 
0.834194 -0.0412195 0.0 
-0.00849747 0.00800443 0.0 
0.868019 -0.0479814 0.0 
-0.0134081 0.00727658 0.0 
0.0115761 -0.00489383 0.0 
-0.0508103 -0.00298673 0.0 
-0.0155897 -0.00331796 0.0 
-0.0413796 0.00313421 0.0 
1.0266 -0.0507854 0.0 
0.773524 -0.0283644 0.0 
-0.00338004 0.00702777 0.0 
-0.0172168 0.00162424 0.0 
1.00221 -0.0529414 0.0 
-0.0215427 -0.000265598 0.0 
-0.0311636 0.00340184 0.0 
-0.0293393 -0.000971929 0.0 
-0.0313252 0.00645598 0.0 
0.0622139 -0.00825603 0.0 
-0.0129702 -0.000318808 0.0 
0.80901 -0.0448637 0.0 
-0.0445072 -0.00472877 0.0 
-0.000417694 0.000440349 0.0 
-0.0256515 -0.00243805 0.0 
-0.0251712 -0.00212288 0.0 
-0.0468414 -0.00648774 0.0 
-0.0232425 -0.00573708 0.0 
0.59059 -0.0173318 0.0 
0 0 0.0 
-0.0015776 -0.000533473 0.0 
-0.0161822 0.000489919 0.0 
-0.0499042 -0.00237079 0.0 
0.93315 -0.0459512 0.0 
-0.0544466 -0.00203731 0.0 
0.930877 -0.014862 0.0 
-0.0271507 0.00258581 0.0 
0.912076 -0.0432791 0.0 
0.561194 -0.0139944 0.0 
0.464709 -0.0207783 0.0 
-0.0393966 -0.00744601 0.0 
-0.0239973 0.0150884 0.0 
0.20121 -0.021402 0.0 
0.845501 -0.0452298 0.0 
-0.0179106 0.000550715 0.0 
-0.0552604 -0.000738906 0.0 
-0.00862991 -0.00703781 0.0 
0.916344 -0.013479 0.0 
-0.0179368 0.0128282 0.0 
-0.0340916 -0.00345858 0.0 
0.703901 -0.0243097 0.0 
0.164699 -0.019963 0.0 
0.854615 -0.0463966 0.0 
0.0057188 -0.00159058 0.0 
-0.0178839 -0.00229398 0.0 
-0.0272351 -0.000164904 0.0 
1.02134 -0.0514274 0.0 
0.793206 -0.0198781 0.0 
-0.0435696 -0.00710177 0.0 
-0.052677 0.000845992 0.0 
-0.0206997 -0.0064607 0.0 
0.131583 -0.0181281 0.0 
-0.0234441 -0.00177327 0.0 
-0.00449955 0.000885366 0.0 
0.690037 -0.0264298 0.0 
0 0 0.0 
0.0410947 -0.00935196 0.0 
-0.0303238 -0.00814456 0.0 
-0.0304645 -0.00720026 0.0 
0.886673 -0.0121321 0.0 
0.933206 -0.0279117 0.0 
0.618024 -0.0465823 0.0 
0.0701595 -0.00693791 0.0 
-0.0229473 -0.00909979 0.0 
0.00713966 -0.01136 0.0 
1.00033 -0.0442521 0.0 
0.00706924 -0.00292786 0.0 
0.0244681 -0.0103584 0.0 
-0.0450725 -0.003005 0.0 
0 0 0.0 
-0.033902 -0.00556857 0.0 
-0.00824751 0.000581911 0.0 
0.869899 -0.0147981 0.0 
0.0207981 0.00110895 0.0 
-0.0205584 -0.00545557 0.0 
0.549205 -0.0100995 0.0 
-0.051516 -0.00207753 0.0 
-0.0466052 -0.00398727 0.0 
-0.032287 -0.00589699 0.0 
-0.0101786 0.000890444 0.0 
0.0303184 -0.00737442 0.0 
0 0 0.0 
-0.0573036 0.000435324 0.0 
0.835824 -0.0531818 0.0 
-0.0300913 0.0141668 0.0 
-0.0272179 -0.00834462 0.0 
-0.038015 -0.00586506 0.0 
-0.0546098 -0.0032246 0.0 
-0.0486306 -0.00608852 0.0 
-0.00945119 -0.00280031 0.0 
0.0156684 -0.00550761 0.0 
0.0762626 -0.00509653 0.0 
-0.00377997 0.00233392 0.0 
0.795403 -0.0452921 0.0 
0.727522 -0.037879 0.0 
0.378471 -0.0190203 0.0 
0.519291 -0.033786 0.0 
-0.051111 -0.00540627 0.0 
0.808874 -0.0474087 0.0 
0.648751 -0.0391572 0.0 
0.0113445 -0.0124935 0.0 
0.64864 -0.0116435 0.0 
0.00671113 -0.0122207 0.0 
0.392874 -0.0297399 0.0 
-0.0458199 0.00229708 0.0 
-0.025383 -0.00757544 0.0 
0.584753 -0.0103591 0.0 
-0.0168451 -0.00216882 0.0 
-0.053892 -0.00407043 0.0 
0.463736 -0.0241077 0.0 
0.727437 -0.0423272 0.0 
-0.0177648 -0.00129347 0.0 
0.372693 -0.0204 0.0 
-0.0183867 -0.00436059 0.0 
-0.0672007 0.00283675 0.0 
0.38951 -0.0178573 0.0 
0.121853 -0.0147058 0.0 
-0.0182609 -0.00182367 0.0 
0.79609 -0.0393188 0.0 
0.0478247 -0.00560351 0.0 
0 0 0.0 
0.845482 -0.0506369 0.0 
0.999648 -0.0565069 0.0 
0.988626 -0.0556009 0.0 
0.334184 -0.0175018 0.0 
-0.0131458 0.00723824 0.0 
-0.00542551 -0.00757959 0.0 
0.776825 -0.0125833 0.0 
0.0371701 0.0033479 0.0 
0.0366689 -0.00871382 0.0 
0.861735 -0.0243173 0.0 
0.922304 -0.0483174 0.0 
-0.0137637 -0.00100008 0.0 
-0.0096341 0.00989607 0.0 
0.754408 -0.0424568 0.0 
-0.0386105 -0.0070642 0.0 
0.729704 -0.0132003 0.0 
0.835632 -0.0487299 0.0 
0.761524 -0.0347614 0.0 
-0.0382072 -0.00817719 0.0 
-0.0166684 -0.00142142 0.0 
0.809149 -0.0219762 0.0 
1.01225 -0.056212 0.0 
-0.0529409 -0.00260293 0.0 
0.00201665 -0.00295009 0.0 
-0.00704872 -0.00719614 0.0 
-0.057013 -0.00211673 0.0 
0.0144249 -0.00315872 0.0 
0.00475434 -0.0117239 0.0 
0 0 0.0 
0 0 0.0 
-0.0445307 -0.00650319 0.0 
-0.0505382 0.00324167 0.0 
-0.0573836 -0.00102019 0.0 
0 0 0.0 
0.148321 -0.0150747 0.0 
-0.0555917 -0.000379267 0.0 
0.441306 -0.0311239 0.0 
-0.0115377 -0.011067 0.0 
-0.0435798 -0.00411495 0.0 
-0.022359 -0.00991663 0.0 
0.727621 -0.030442 0.0 
-0.0329184 -0.00800355 0.0 
0.536163 -0.014336 0.0 
-0.00101185 -0.0048 0.0 
-0.00180326 -0.0073794 0.0 
-0.0188804 -0.000436559 0.0 
-0.0108407 -0.000822567 0.0 
0.80266 -0.0434951 0.0 
0.114637 -0.0115146 0.0 
-0.0413004 -0.00321951 0.0 
0.00228767 -0.00795549 0.0 
0.511965 -0.0148861 0.0 
0.00461858 -0.00420151 0.0 
-0.0232065 -0.00360579 0.0 
-0.00990043 -0.0070226 0.0 
-0.0363102 -0.00419772 0.0 
-0.0424211 -0.00288096 0.0 
0 0 0.0 
-0.00917533 -0.00368422 0.0 
-0.058208 0.000979823 0.0 
-0.0547104 -0.000130939 0.0 
0.668564 -0.0217645 0.0 
-0.0509859 -0.00208736 0.0 
0.449048 -0.0164451 0.0 
0 0 0.0 
0.695551 -0.041047 0.0 
-0.00860449 -0.00909113 0.0 
0.401558 -0.0163872 0.0 
-0.0340336 0.00215516 0.0 
-0.0575511 -0.00107177 0.0 
0.230541 -0.0229137 0.0 
-0.0285604 -0.00902891 0.0 
0.376106 -0.0277976 0.0 
0.204657 -0.0158357 0.0 
-0.0277596 -0.00201122 0.0 
0.517981 -0.033994 0.0 
0.531061 -0.0102522 0.0 
-0.0294658 0.00636171 0.0 
-0.00359847 -0.00914533 0.0 
0.0143418 -0.00996483 0.0 
0.521595 -0.0262014 0.0 
-0.0564816 -0.00188593 0.0 
-0.0296096 -0.000902514 0.0 
-0.00127561 -0.00535831 0.0 
0.659627 -0.0428915 0.0 
0.846063 -0.0442797 0.0 
-0.0288923 -0.00597678 0.0 
-0.0457308 -0.00110045 0.0 
0 0 0.0 
-0.00805844 -0.000869005 0.0 
-0.0361605 -0.00321681 0.0 
-0.0506451 -0.00446757 0.0 
-0.0164161 0.000820688 0.0 
-0.0303825 0.00578173 0.0 
0.336061 -0.0267563 0.0 
0 0 0.0 
0.623379 -0.0430776 0.0 
-0.0254847 -0.00135012 0.0 
-0.0131676 -0.000551115 0.0 
-0.0454467 -0.00348888 0.0 
-0.0284808 0.00113046 0.0 
-0.0331696 -0.00053168 0.0 
0.0275136 0.00250627 0.0 
-0.0247369 0.000620528 0.0 
0.931936 -0.0374866 0.0 
-0.032305 -0.00716119 0.0 
-0.0402218 -0.00775942 0.0 
0.839374 -0.0473389 0.0 
-0.00287044 -0.00303697 0.0 
-0.0214394 -0.000926179 0.0 
-0.00836871 -0.00735019 0.0 
-0.036298 -0.0026521 0.0 
-0.054698 -0.00320654 0.0 
0.686383 -0.0124369 0.0 
-0.0532318 0.00103357 0.0 
-0.0098719 -0.00821185 0.0 
-0.0448797 -0.00462676 0.0 
-0.0573929 -0.000170546 0.0 
-0.0163371 -0.000559473 0.0 
-0.0207202 0.000199041 0.0 
0.0223586 -0.0127501 0.0 
-0.0223272 -0.00244898 0.0 
-0.0486816 -0.00341537 0.0 
-0.0406635 -0.00347136 0.0 
-0.0142337 -0.00621285 0.0 
0.00142349 0.00356999 0.0 
0.899139 -0.0473649 0.0 
-0.0251269 -0.00335164 0.0 
-0.00173308 -0.00755981 0.0 
-0.0374069 -0.00839046 0.0 
-0.0463995 -0.000831566 0.0 
-0.0359068 -0.00833186 0.0 
0.87235 -0.0452846 0.0 
-0.042201 -0.00681047 0.0 
-0.0153939 -0.00842854 0.0 
0.520722 -0.0129223 0.0 
-0.0502697 -0.00530956 0.0 
1.04593 -0.0538609 0.0 
-0.011557 -0.000990871 0.0 
-0.0289285 -0.00898214 0.0 
0.460951 -0.0157447 0.0 
4.09162e-05 -0.0105185 0.0 
-0.0112366 -0.000395181 0.0 
-0.0570969 0.00359999 0.0 
0.568456 -0.0370787 0.0 
0.00106288 -0.000237456 0.0 
-0.0059942 0.0109004 0.0 
0.96424 -0.0164537 0.0 
-0.0231127 0.00354958 0.0 
0.72032 -0.0429357 0.0 
0.488837 -0.0373421 0.0 
-0.00929974 -0.00101213 0.0 
-0.0418323 -0.00597939 0.0 
-0.00204528 -0.0100915 0.0 
-0.0479801 -0.00601811 0.0 
-0.0102611 -0.00125811 0.0 
0.00797238 -0.00822922 0.0 
0.0177224 -0.011779 0.0 
-0.0166289 -0.00151102 0.0 
0.000220678 0.00189404 0.0 
-0.0108282 -0.00117323 0.0 
-0.0229823 -0.00088744 0.0 
-0.0362326 -0.00413517 0.0 
0.502623 -0.00668626 0.0 
0.318144 -0.0304046 0.0 
-0.0480444 -0.00475464 0.0 
0.0252597 0.00426906 0.0 
-0.00517718 -0.00428171 0.0 
0.745238 -0.0428771 0.0 
0.819431 -0.04436 0.0 
0.612701 -0.0199751 0.0 
0.145125 -0.0198191 0.0 
-0.0390841 -0.0038734 0.0 
-0.0568795 0.00343188 0.0 
-0.0498521 -0.00486595 0.0 
0.0944384 -0.0124376 0.0 
-0.0431463 0.00288435 0.0 
0.743521 -0.0456627 0.0 
-0.0369673 -0.00372843 0.0 
-0.0454385 -0.00280999 0.0 
-0.0105013 -0.000970116 0.0 
-0.0616327 0.000347917 0.0 
0.0338263 -0.00926795 0.0 
-0.00860015 0.000402167 0.0 
-0.0519985 0.00312929 0.0 
-0.00353365 0.00148585 0.0 
-0.0150624 0.0008751 0.0 
0 0 0.0 
-0.00269046 -0.0116441 0.0 
0.00470825 0.00437016 0.0 
0.0662496 -0.0112194 0.0 
-0.027152 0.0144979 0.0 
-0.0150078 0.00255671 0.0 
0.456182 -0.0392574 0.0 
-0.0122316 0.00132656 0.0 
-0.0410692 -0.0051708 0.0 
0.967237 -0.0571915 0.0 
-0.0366987 0.00348363 0.0 
0.896975 -0.0545673 0.0 
-0.0372457 -0.00219049 0.0 
0 0 0.0 
0.687435 -0.0157296 0.0 
-0.02647 -0.00297582 0.0 
0.00754423 -0.00864862 0.0 
0.52076 -0.00937489 0.0 
-0.010344 -0.0016879 0.0 
0.954317 -0.0136628 0.0 
-0.00900895 0.00287901 0.0 
-0.0237 0.010063 0.0 
0.858011 -0.0454925 0.0 
-0.0294483 0.0018217 0.0 
-0.0295975 -0.0041494 0.0 
0.014972 -0.00811301 0.0 
0.0073063 -0.00620465 0.0 
-0.0087469 -0.000744046 0.0 
-0.000847098 -0.00111727 0.0 
-0.0130451 0.0115717 0.0 
0.835058 -0.0130304 0.0 
1.00824 -0.0573594 0.0 
0 0 0.0 
-0.000780096 -0.00873626 0.0 
0 0 0.0 
0.00392628 -0.000910682 0.0 
0.630526 -0.0390855 0.0 
0.92264 -0.0481597 0.0 
-0.0374382 0.00189661 0.0 
0.813146 -0.0135324 0.0 
-0.0340272 -0.00140407 0.0 
0.979424 -0.0495181 0.0 
0.356791 -0.0335458 0.0 
0.913439 -0.0549775 0.0 
0.0181401 -0.0111284 0.0 
0.90054 -0.0264264 0.0 
1.00495 -0.0554467 0.0 
0.0187008 -0.0116051 0.0 
-0.0499441 -0.00402742 0.0 
-0.00834567 -0.0102604 0.0 
-0.0657569 0.00147021 0.0 
0.933914 -0.0555207 0.0 
0.608808 -0.0101988 0.0 
0.00157353 -0.0112862 0.0 
-0.0113389 -0.000965208 0.0 
0.0147815 -0.0122337 0.0 
-0.0105564 -0.00103975 0.0 
0.652601 -0.0230316 0.0 
0.70373 -0.0105276 0.0 
-0.0180695 -0.000543204 0.0 
-0.0578944 0.00273315 0.0 
-0.0353476 -0.00527447 0.0 
-0.00395087 -0.00592125 0.0 
0 0 0.0 
-0.00848767 -0.000915062 0.0 
-0.0147029 -0.00784679 0.0 
0.936076 -0.058081 0.0 
0.232519 -0.0174991 0.0 
0.433737 -0.0355242 0.0 
-0.0314077 -0.00456908 0.0 
0.217663 -0.0182365 0.0 
0.0311477 -0.010313 0.0 
0.483081 -0.00573464 0.0 
0 0 0.0 
0.874607 -0.0535942 0.0 
-0.0182857 1.64001e-05 0.0 
0.0328542 -0.0122691 0.0 
0.665466 -0.0419528 0.0 
-0.00621868 0.00277075 0.0 
0.915984 -0.0507796 0.0 
-0.0185598 0.0139327 0.0 
0.00337986 0.000949947 0.0 
0.738357 -0.0278283 0.0 
0.43267 -0.023954 0.0 
0.861386 -0.0195444 0.0 
0.418997 -0.0263909 0.0 
-0.0250716 -0.00197822 0.0 
0.213119 -0.0236735 0.0 
0.00599285 -0.00326588 0.0 
-0.0141203 -0.00172997 0.0 
0.637683 -0.0245645 0.0 
-0.023494 0.00141696 0.0 
0 0 0.0 
-0.013607 -0.0021339 0.0 
0.0948672 -0.0153155 0.0 
0.875769 -0.0549325 0.0 
0.0189797 -0.00461533 0.0 
0.0409755 -0.00271018 0.0 
0.0239422 -0.0132056 0.0 
1.03214 -0.0540269 0.0 
0.0221732 -0.00856767 0.0 
-0.0154395 -0.00927351 0.0 
0.949036 -0.0565548 0.0 
-0.0275291 -0.00287663 0.0 
-0.0227737 0.013458 0.0 
0.0262291 -0.0127585 0.0 
0.576459 -0.00776012 0.0 
-0.00951964 0.0096352 0.0 
0.540639 -0.0083119 0.0 
0.0505098 -0.00963898 0.0 
0.600125 -0.0214016 0.0 
0.715728 -0.0331775 0.0 
0.00204634 0.00435658 0.0 
0.675724 -0.0285225 0.0 
0.296164 -0.0156292 0.0 
0.211737 -0.0213532 0.0 
0.61979 -0.0261571 0.0 
-0.00303195 0.00820408 0.0 
-0.0481447 0.00340409 0.0 
0.787064 -0.0487688 0.0 
-0.0302993 -0.0018952 0.0 
-0.0158078 -0.0101377 0.0 
-0.0181202 0.0129153 0.0 
-0.0145528 -0.000196996 0.0 
-0.00407115 0.00367208 0.0 
0.00296184 -0.00762335 0.0 
0.871029 -0.0504201 0.0 
0.00600274 -0.00826853 0.0 
0.00969981 -0.00849498 0.0 
0.00609039 -0.00588831 0.0 
0.115755 -0.00859591 0.0 
0.537471 -0.016581 0.0 
0.810824 -0.0367727 0.0 
0.407321 -0.0149423 0.0 
-0.0547584 -0.00380017 0.0 
-0.0306654 -0.00198054 0.0 
0.577893 -0.0154486 0.0 
0.0169996 -0.00206412 0.0 
0.704949 -0.0150221 0.0 
0.808771 -0.0533746 0.0 
0.00556692 0.00197868 0.0 
0.949597 -0.0490718 0.0 
-0.000589045 -0.00169753 0.0 
-0.0181246 -0.00213849 0.0 
0.0120636 -0.0121105 0.0 
-0.0553755 0.00368702 0.0 
0.504131 -0.0398058 0.0 
0.160847 -0.0196637 0.0 
0.220083 -0.0252518 0.0 
-0.0702617 0.000832629 0.0 
0.66685 -0.0317457 0.0 
-0.0297832 0.0020815 0.0 
0.722613 -0.0491458 0.0 
0.289768 -0.0236368 0.0 
-0.0298861 -0.00672459 0.0 
0 0 0.0 
-0.0215387 -0.00192268 0.0 
-0.0550443 -0.00138618 0.0 
0.857599 -0.035989 0.0 
0.823163 -0.0341162 0.0 
0.010124 0.00391142 0.0 
1.02589 -0.0533609 0.0 
0.295267 -0.0252959 0.0 
0.0324879 -0.00747396 0.0 
0.140219 -0.0123404 0.0 
0.601647 -0.0404587 0.0 
0.101087 -0.0170598 0.0 
-0.00413425 -0.00761359 0.0 
-0.0170569 -0.0042442 0.0 
0.0965204 -0.0141194 0.0 
0.26473 -0.0260582 0.0 
0.000681595 -0.00805087 0.0 
-0.00893269 -0.000489805 0.0 
0.403502 -0.0325707 0.0 
-0.0106797 0.000261873 0.0 
-0.0225705 -0.00907864 0.0 
-0.00413761 -0.00243148 0.0 
0.405452 -0.028365 0.0 
-0.0267451 0.00428596 0.0 
-0.0194652 -0.00155873 0.0 
0.772583 -0.043599 0.0 
0.00250426 -0.00165266 0.0 
-0.0297996 -0.00443207 0.0 
-0.0535525 -0.00449212 0.0 
0.00662466 -0.00781518 0.0 
0.0112071 0.00689553 0.0 
0.0544512 -0.0135183 0.0 
0.0511434 -0.000972347 0.0 
-0.0209341 0.00164441 0.0 
-0.0214712 0.00180003 0.0 
-0.0125197 -0.000532908 0.0 
-0.051521 -0.00106266 0.0 
-0.0531937 -0.00271488 0.0 
-0.027745 0.0121748 0.0 
0.00380027 -0.00934864 0.0 
0.111048 -0.0142772 0.0 
0.45823 -0.0261457 0.0 
0 0 0.0 
0 0 0.0 
0 0 0.0 
-0.0105554 -0.00136236 0.0 
-0.00119244 0.0103199 0.0 
-0.0701941 0.00223235 0.0 
0.460851 -0.0310141 0.0 
-0.0326235 -0.00536145 0.0 
-0.0264796 -0.0028494 0.0 
-0.0182041 -0.00140164 0.0 
0.0916129 -0.00803299 0.0 
0.669528 -0.0473525 0.0 
0.749802 -0.0252377 0.0 
-0.0199383 -0.00224429 0.0 
-0.0200767 -0.00738189 0.0 
-0.0455566 -0.00174689 0.0 
-0.00985462 0.000783528 0.0 
-0.0198444 0.00301496 0.0 
0.820602 -0.0461113 0.0 
-0.00206126 -0.00628192 0.0 
-0.0114125 -0.00132204 0.0 
0.0104001 -0.000933393 0.0 
0.0722483 -0.00168868 0.0 
0.898822 -0.0300175 0.0 
0.0203839 -0.00592275 0.0 
0.083387 -0.0117027 0.0 
0 0 0.0 
0.032052 -0.0136394 0.0 
0.951963 -0.0486965 0.0 
0.280238 -0.0294882 0.0 
0.713192 -0.0474897 0.0 
0.133227 -0.0186299 0.0 
-0.00656948 -0.000661422 0.0 
0.942027 -0.0522427 0.0 
0 0 0.0 
0.898885 -0.0455426 0.0 
0.591472 -0.0229138 0.0 
-0.0224802 -0.00293346 0.0 
0.949415 -0.0572418 0.0 
0.351048 -0.0165268 0.0 
0.571915 -0.0111006 0.0 
0.222136 -0.0198089 0.0 
0.0034138 0.00602585 0.0 
0.979969 -0.0557535 0.0 
0.0509002 -0.00239729 0.0 
0.911957 -0.0349981 0.0 
-0.00107494 0.00560455 0.0 
0.94157 -0.0559985 0.0 
0.596134 -0.00763869 0.0 
0 0 0.0 
0.0202729 0.00599932 0.0 
0.0451773 -0.00729857 0.0 
0.460132 -0.0338701 0.0 
-0.00891768 -0.00647983 0.0 
1.01677 -0.0570197 0.0 
0.260471 -0.0199203 0.0 
0.968197 -0.0550276 0.0 
-0.0347297 -0.00675566 0.0 
0.806019 -0.052555 0.0 
-0.00845238 -0.0101555 0.0 
-0.0103043 -0.00705816 0.0 
-0.038079 0.0013892 0.0 
0.970049 -0.0526107 0.0 
0.728075 -0.0508523 0.0 
0 0 0.0 
0.827026 -0.0452689 0.0 
0.24976 -0.021395 0.0 
0.779548 -0.0324002 0.0 
-0.053253 -0.00387837 0.0 
0.322794 -0.0223329 0.0 
0.11051 -0.00853607 0.0 
-0.00899627 -0.000269293 0.0 
0.0238614 -0.00119148 0.0 
0.153395 -0.00967568 0.0 
-0.0313952 -0.00372257 0.0 
-0.0559957 0.000644227 0.0 
-0.0260333 -0.00464078 0.0 
-0.00938969 0.00026198 0.0 
0.957699 -0.0581372 0.0 
0.00572734 0.00159491 0.0 
-0.00711081 0.00128392 0.0 
-0.0137295 -0.00105383 0.0 
0 0 0.0 
-0.0184322 -0.00591063 0.0 
0.0201999 -0.00635906 0.0 
0.664815 -0.0127411 0.0 
-0.0112009 -0.00529926 0.0 
0.0135659 -0.000874515 0.0 
-0.00148366 -0.00852968 0.0 
0.761043 -0.0451293 0.0 
0.0236131 0.00306193 0.0 
0.796505 -0.0140802 0.0 
0 0 0.0 
0.187418 -0.0184732 0.0 
-0.0578331 0.00189951 0.0 
0.51037 -0.00625997 0.0 
0 0 0.0 
0 0 0.0 
-0.0208815 -0.00988867 0.0 
-0.0126774 0.012251 0.0 
0.125738 -0.0179355 0.0 
0 0 0.0 
-0.0102162 0.000343592 0.0 
-0.0256975 0.000470716 0.0 
-0.058185 0.000176835 0.0 
-0.0153973 -0.00164502 0.0 
-0.0447393 -0.00579655 0.0 
-0.0248218 -0.0011689 0.0 
0.0119213 -0.00589769 0.0 
0.0296077 -0.00348378 0.0 
-0.0520887 0.000206287 0.0 
0.0601575 -0.00401346 0.0 
0 0 0.0 
0.295402 -0.0205113 0.0 
0.0160017 -0.00340608 0.0 
0 0 0.0 
0.0123098 0.00583685 0.0 
0.0280768 -0.0055359 0.0 
0.0109869 0.001968 0.0 
0.759936 -0.0147116 0.0 
0.0187832 -0.0092507 0.0 
-0.0167386 0.00024586 0.0 
-0.0280064 -0.0095239 0.0 
-0.0056834 0.00496198 0.0 
-0.0356732 -0.00812695 0.0 
-0.0270249 0.00137713 0.0 
0.71854 -0.022004 0.0 
0.824523 -0.0277412 0.0 
-0.0362944 -0.00759172 0.0 
-0.0309007 0.000794381 0.0 
0.00246235 -0.0079852 0.0 
0.070374 -0.0117234 0.0 
-0.0443976 -0.0024095 0.0 
0.688156 -0.0187751 0.0 
-0.0187147 0.0109091 0.0 
0.891898 -0.0494354 0.0 
-0.0274841 -0.00166239 0.0 
0 0 0.0 
-0.00676713 -0.00744653 0.0 
0.774903 -0.050588 0.0 
-0.0489013 0.000581017 0.0 
0.0229807 -0.00784242 0.0 
0.582173 -0.00893167 0.0 
0 0 0.0 
0.0731473 -0.00790956 0.0 
-0.0554973 0.00158962 0.0 
-0.00663571 -0.000118903 0.0 
-0.049639 -0.00261618 0.0 
-0.0286032 0.00209098 0.0 
-0.0038835 -6.33492e-05 0.0 
0.00345236 -0.00821461 0.0 
1.01318 -0.0562094 0.0 
0.62407 -0.011594 0.0 
-0.0462098 -0.00120964 0.0 
-0.00435006 -0.00184281 0.0 
0.737833 -0.0203737 0.0 
0.77363 -0.0471605 0.0 
-0.0296077 -0.00072008 0.0 
0.158491 -0.0145143 0.0 
-0.0487024 -0.00570147 0.0 
0.901458 -0.0568895 0.0 
0.156593 -0.0177725 0.0 
-0.0334062 -0.00435973 0.0 
0.0769451 -0.0133345 0.0 
-0.0309994 0.0111099 0.0 
-0.027737 0.000777812 0.0 
-0.0455893 -0.00627631 0.0 
0 0 0.0 
0.0377394 -0.0112464 0.0 
0.961111 -0.0524971 0.0 
0 0 0.0 
0 0 0.0 
-0.0325663 -0.00214086 0.0 
0.640601 -0.0129385 0.0 
0.995553 -0.0571563 0.0 
-0.000787241 0.00906659 0.0 
0.00649032 -0.000145445 0.0 
-0.010273 3.51659e-05 0.0 
-0.0279843 -0.00954546 0.0 
-0.0297521 -0.00311816 0.0 
0 0 0.0 
0 0 0.0 
0.00734951 0.00809676 0.0 
0 0 0.0 
0.415206 -0.0367126 0.0 
-0.0099616 -0.00060918 0.0 
-0.00997663 -0.000678053 0.0 
-0.00918444 0.000865184 0.0 
0.0489288 -0.0144088 0.0 
0.00744242 0.00329524 0.0 
-0.0452824 -2.97148e-05 0.0 
0.767513 -0.0137116 0.0 
0.513886 -0.03536 0.0 
-0.0441305 0.00139347 0.0 
-0.0266964 -0.00564705 0.0 
-0.0125821 -0.000984038 0.0 
-0.0126924 -0.00663875 0.0 
-0.0169354 0.000360739 0.0 
0 0 0.0 
0.00973225 0.00432189 0.0 
-0.0396736 -0.00123274 0.0 
-0.0422856 -0.000523316 0.0 
0.000815812 -0.00549717 0.0 
-0.0229475 -0.00476031 0.0 
0.902759 -0.0532839 0.0 
0.00254622 -0.00353066 0.0 
0.691415 -0.0447081 0.0 
0.575545 -0.0364597 0.0 
-0.0146004 -0.00922983 0.0 
-0.0514691 0.00438093 0.0 
-0.00806258 -0.000790513 0.0 
0.936019 -0.0574503 0.0 
-0.0377799 -0.00486896 0.0 
0.00993913 0.00824087 0.0 
0.350406 -0.0239992 0.0 