<VTKFile type="UnstructuredGrid" version="0.1" byte_order="LittleEndian">
  <UnstructuredGrid>
    <Piece NumberOfPoints="14255" NumberOfCells="27814">
      <Points>
        <DataArray type = "Float64" NumberOfComponents="3" format="ascii">
1.03005 1.01741 0.0 
1.07129 1.02636 0.0 
1.00248 1.0114 0.0 
1.03001 1.03856 0.0 
1.02703 1.01519 0.0 
1.01574 1.02028 0.0 
1.01502 1.02036 0.0 
1.01186 1.0214 0.0 
1.0055 1.01042 0.0 
1.02956 1.03038 0.0 
1.02868 1.01933 0.0 
1.06132 1.02371 0.0 
1.00619 1.01005 0.0 
1.02149 1.01567 0.0 
1.00597 1.00992 0.0 
1.01767 1.01541 0.0 
1.03441 1.03565 0.0 
1.00347 1.01575 0.0 
0.99858 1.01198 0.0 
1.02737 1.01714 0.0 
1.03322 1.02926 0.0 
1.01662 1.0202 0.0 
1.00362 1.01476 0.0 
1.01618 1.02081 0.0 
1.01412 1.01609 0.0 
1.01428 1.01921 0.0 
1.01554 1.02169 0.0 
1.02821 1.01998 0.0 
1.01352 1.02133 0.0 
1.0163 1.02163 0.0 
1.01354 1.01944 0.0 
1.01332 1.01299 0.0 
1.02747 1.01393 0.0 
1.01955 1.01679 0.0 
1.0196 1.01464 0.0 
1.01078 1.01741 0.0 
1.02722 1.01395 0.0 
1.01388 1.02198 0.0 
1.00936 1.01228 0.0 
1.00705 1.01055 0.0 
1.02778 1.01519 0.0 
1.00839 1.01123 0.0 
1.02453 1.01951 0.0 
1.01441 1.01437 0.0 
1.00638 1.0147 0.0 
1.02793 1.01649 0.0 
1.01503 1.01339 0.0 
1.01482 1.0217 0.0 
1.02211 1.01533 0.0 
1.02744 1.01456 0.0 
1.01358 1.01426 0.0 
1.01563 1.01916 0.0 
1.02165 1.01874 0.0 
1.02672 1.01399 0.0 
1.01636 1.01891 0.0 
1.02739 1.01582 0.0 
1.00884 1.01144 0.0 
1.02056 1.02146 0.0 
1.02856 1.01804 0.0 
1.01205 1.01783 0.0 
1.01165 1.01843 0.0 
1.02248 1.01893 0.0 
1.02572 1.01405 0.0 
1.02251 1.02046 0.0 
1.02019 1.01553 0.0 
1.00439 1.01189 0.0 
1.01273 1.01981 0.0 
1.0225 1.01962 0.0 
1.003 1.01197 0.0 
1.01818 1.01934 0.0 
1.01023 1.01201 0.0 
1.01031 1.01937 0.0 
1.01848 1.01391 0.0 
1.01351 1.01999 0.0 
1.01101 1.01456 0.0 
1.02108 1.01978 0.0 
1.01799 1.01386 0.0 
1.02313 1.02007 0.0 
1.01689 1.01517 0.0 
1.01297 1.01525 0.0 
1.01832 1.02245 0.0 
1.01141 1.01243 0.0 
1.01782 1.01789 0.0 
1.01282 1.01417 0.0 
1.0079 1.01221 0.0 
1.00692 1.01115 0.0 
1.00675 1.01392 0.0 
1.02677 1.01463 0.0 
1.00912 1.01699 0.0 
1.02796 1.01388 0.0 
1.02207 1.01727 0.0 
1.02344 1.01886 0.0 
1.01973 1.01402 0.0 
1.02555 1.01815 0.0 
1.02547 1.01406 0.0 
1.0244 1.02115 0.0 
1.01276 1.01352 0.0 
1.01838 1.0145 0.0 
1.0112 1.01305 0.0 
1.02369 1.0167 0.0 
1.01343 1.01749 0.0 
1.0189 1.01574 0.0 
1.01973 1.01891 0.0 
1.02024 1.01478 0.0 
1.02522 1.0193 0.0 
1.02172 1.01411 0.0 
1.02373 1.01811 0.0 
1.02308 1.0162 0.0 
1.01604 1.01961 0.0 
1.0184 1.02015 0.0 
1.0137 1.02066 0.0 
1.01892 1.0173 0.0 
1.02564 1.01571 0.0 
1.01176 1.01645 0.0 
1.02076 1.0222 0.0 
1.01741 1.01832 0.0 
1.01247 1.01853 0.0 
1.02166 1.01476 0.0 
1.02379 1.01945 0.0 
1.02596 1.01885 0.0 
1.02603 1.0176 0.0 
1.01075 1.01819 0.0 
1.02262 1.02211 0.0 
1.02489 1.02067 0.0 
1.02423 1.02173 0.0 
1.01093 1.01227 0.0 
1.01055 1.0144 0.0 
1.02434 1.01773 0.0 
1.01308 1.01293 0.0 
1.01558 1.0186 0.0 
1.02807 1.01582 0.0 
1.0201 1.01963 0.0 
1.00934 1.01623 0.0 
1.01512 1.01963 0.0 
1.01562 1.01574 0.0 
1.02073 1.01408 0.0 
1.01461 1.01483 0.0 
1.01418 1.01535 0.0 
1.01905 1.01956 0.0 
1.00881 1.01433 0.0 
1.02533 1.02803 0.0 
1.00734 1.01342 0.0 
1.02505 1.01998 0.0 
1.02516 1.01864 0.0 
1.02388 1.02066 0.0 
1.01853 1.01804 0.0 
1.01187 1.01332 0.0 
1.00929 1.01485 0.0 
1.02356 1.01481 0.0 
1.00222 1.01194 0.0 
1.01891 1.01643 0.0 
1.02123 1.0141 0.0 
1.02205 1.02081 0.0 
1.02025 1.01833 0.0 
1.01212 1.01265 0.0 
1.02091 1.02087 0.0 
1.02501 1.01738 0.0 
1.02322 1.01413 0.0 
1.0107 1.01573 0.0 
1.00977 1.01336 0.0 
1.02126 1.01706 0.0 
1.01457 1.02084 0.0 
1.01445 1.01725 0.0 
1.01292 1.01477 0.0 
1.02132 1.02036 0.0 
1.02625 1.01512 0.0 
1.01154 1.01369 0.0 
1.01287 1.01794 0.0 
1.01228 1.02055 0.0 
1.02372 1.01412 0.0 
1.02077 1.01579 0.0 
1.0102 1.01394 0.0 
1.02483 1.01467 0.0 
1.01086 1.01655 0.0 
1.02302 1.01484 0.0 
1.02643 1.0183 0.0 
1.02176 1.01936 0.0 
1.01057 1.01514 0.0 
1.02349 1.01561 0.0 
1.02288 1.01836 0.0 
1.01879 1.02218 0.0 
1.02092 1.01498 0.0 
1.01744 1.01981 0.0 
1.01218 1.01484 0.0 
1.02552 1.01491 0.0 
1.02497 1.01534 0.0 
1.02242 1.01665 0.0 
1.01335 1.01365 0.0 
1.02423 1.02008 0.0 
1.02477 1.01588 0.0 
1.02222 1.01412 0.0 
1.01114 1.01929 0.0 
1.0224 1.01479 0.0 
1.02365 1.02124 0.0 
1.02157 1.0219 0.0 
1.02281 1.02683 0.0 
1.01732 1.02125 0.0 
1.01356 1.01306 0.0 
1.02404 1.01602 0.0 
1.02394 1.0173 0.0 
1.01853 1.01521 0.0 
1.02472 1.0141 0.0 
1.01045 1.01886 0.0 
1.01136 1.01516 0.0 
1.01765 1.01718 0.0 
1.01063 1.01293 0.0 
1.01675 1.01951 0.0 
1.02307 1.01941 0.0 
1.01676 1.01832 0.0 
1.0126 1.0128 0.0 
1.00907 1.01154 0.0 
1.01705 1.01589 0.0 
1.01814 1.02083 0.0 
1.02026 1.01637 0.0 
1.01 1.01697 0.0 
1.0242 1.01507 0.0 
1.00726 1.01619 0.0 
1.02049 1.02028 0.0 
1.04153 1.02555 0.0 
1.01236 1.01273 0.0 
1.01739 1.01452 0.0 
1.00744 1.01549 0.0 
1.00848 1.01506 0.0 
1.01722 1.01696 0.0 
1.02655 1.01578 0.0 
1.00862 1.01133 0.0 
1.01117 1.01235 0.0 
1.02599 1.01454 0.0 
1.00902 1.0137 0.0 
1.00473 1.01321 0.0 
1.02273 1.01546 0.0 
1.00763 1.01404 0.0 
1.02781 1.01934 0.0 
1.01153 1.01433 0.0 
1.02698 1.01645 0.0 
1.00679 1.01302 0.0 
1.00913 1.0155 0.0 
1.01953 1.02128 0.0 
1.02298 1.01699 0.0 
1.02012 1.01718 0.0 
1.02511 1.0214 0.0 
1.02115 1.01825 0.0 
1.00722 1.01227 0.0 
1.04572 1.01516 0.0 
1.02817 1.02063 0.0 
1.01202 1.01912 0.0 
1.02626 1.01946 0.0 
1.01183 1.01983 0.0 
1.00996 1.01462 0.0 
1.01288 1.01642 0.0 
1.00862 1.01317 0.0 
1.01591 1.0271 0.0 
1.02578 1.02039 0.0 
1.01141 1.02048 0.0 
1.00827 1.01265 0.0 
1.0077 1.01483 0.0 
1.00497 1.0125 0.0 
1.00727 1.01067 0.0 
1.01467 1.01657 0.0 
1.04901 1.02358 0.0 
1.0107 1.01218 0.0 
1.01284 1.01286 0.0 
1.00988 1.01547 0.0 
0.999458 1.02565 0.0 
1.00797 1.01331 0.0 
1.00569 1.01616 0.0 
1.01954 1.01601 0.0 
1.01722 1.02227 0.0 
1.0446 1.01522 0.0 
1.01798 1.01472 0.0 
1.02696 1.019 0.0 
1.01379 1.01653 0.0 
1.00949 1.01914 0.0 
1.00835 1.01381 0.0 
1.02802 1.0187 0.0 
1.00749 1.01079 0.0 
1.02622 1.01402 0.0 
1.00567 1.01261 0.0 
1.01677 1.02088 0.0 
1.00774 1.01149 0.0 
1.01826 1.01678 0.0 
1.00924 1.01301 0.0 
1.0183 1.01598 0.0 
1.00226 1.02019 0.0 
1.01824 1.01744 0.0 
1.01364 1.01551 0.0 
1.01756 1.01636 0.0 
1.01936 1.01814 0.0 
1.00949 1.01769 0.0 
1.05232 1.02778 0.0 
1.00953 1.01173 0.0 
1.0001 1.02435 0.0 
1.01958 1.01746 0.0 
1.01273 1.02116 0.0 
1.00062 1.02165 0.0 
1.04552 1.01133 0.0 
1.01489 1.01876 0.0 
1.00641 1.01231 0.0 
1.0008 1.01885 0.0 
1.04548 1.01179 0.0 
1.06218 1.02017 0.0 
1.00212 1.02767 0.0 
1.00303 1.02472 0.0 
1.02437 1.01875 0.0 
0.996065 1.02956 0.0 
1.06355 1.0214 0.0 
1.00609 1.01068 0.0 
1.01806 1.01871 0.0 
1.00449 1.01705 0.0 
1.06568 1.02162 0.0 
1.02205 1.02007 0.0 
1.01521 1.01416 0.0 
1.01424 1.02002 0.0 
1.00529 1.01322 0.0 
1.02446 1.01666 0.0 
1.00981 1.0184 0.0 
1.02066 1.01692 0.0 
1.01851 1.02145 0.0 
1.02144 1.01767 0.0 
1.01216 1.01562 0.0 
1.00691 1.01175 0.0 
0.997705 1.02391 0.0 
1.01043 1.0134 0.0 
1.01545 1.02105 0.0 
1.02946 1.01716 0.0 
1.00074 1.0253 0.0 
1.01882 1.01878 0.0 
1.02286 1.01773 0.0 
1.01749 1.01379 0.0 
1.00853 1.01663 0.0 
1.008 1.01625 0.0 
1.01309 1.02061 0.0 
1.00576 1.00979 0.0 
1.06293 1.0207 0.0 
1.01341 1.01871 0.0 
0.994713 1.02286 0.0 
0.997173 1.02085 0.0 
1.00477 1.01488 0.0 
1.02578 1.01696 0.0 
1.01539 1.01492 0.0 
1.04849 1.01681 0.0 
0.994009 1.02121 0.0 
1.02067 1.01762 0.0 
1.00307 1.01344 0.0 
1.01424 1.01859 0.0 
1.01495 1.01607 0.0 
1.02023 1.01405 0.0 
1.01481 1.0155 0.0 
1.00778 1.01691 0.0 
1.02 1.02081 0.0 
1.01985 1.02246 0.0 
1.00405 1.0165 0.0 
1.04767 1.02323 0.0 
0.994569 1.01973 0.0 
1.01901 1.02079 0.0 
1.01729 1.019 0.0 
0.99758 1.02583 0.0 
1.00565 1.01202 0.0 
0.99921 1.01158 0.0 
1.00038 1.0208 0.0 
1.02918 1.01984 0.0 
1.04208 1.02252 0.0 
1.05756 1.02234 0.0 
1.02889 1.01748 0.0 
1.01594 1.01424 0.0 
1.01633 1.01758 0.0 
1.01429 1.01805 0.0 
1.02469 1.01813 0.0 
1.01942 1.01522 0.0 
1.00815 1.01904 0.0 
1.02832 1.0272 0.0 
1.00176 1.01135 0.0 
1.01605 1.01707 0.0 
0.996382 1.01745 0.0 
1.01745 1.02052 0.0 
1.01017 1.01773 0.0 
1.03085 1.02132 0.0 
1.01137 1.0159 0.0 
1.05767 1.0213 0.0 
1.00554 1.01127 0.0 
0.997798 1.02259 0.0 
1.01283 1.01913 0.0 
1.00607 1.01295 0.0 
1.01046 1.0121 0.0 
1.02871 1.01606 0.0 
1.01427 1.0138 0.0 
1.01705 1.01763 0.0 
1.01522 1.01699 0.0 
1.01405 1.01317 0.0 
1.01743 1.02176 0.0 
1.01135 1.01781 0.0 
1.00791 1.01761 0.0 
1.01665 1.01435 0.0 
1.01895 1.01466 0.0 
1.00256 1.01644 0.0 
1.01576 1.01353 0.0 
1.02907 1.01881 0.0 
1.01675 1.01369 0.0 
1.0223 1.02149 0.0 
1.01923 1.01398 0.0 
1.00819 1.01441 0.0 
1.02208 1.01814 0.0 
1.02301 1.02074 0.0 
1.02321 1.02165 0.0 
1.02665 1.03789 0.0 
1.01967 1.02184 0.0 
1.00612 1.01351 0.0 
1.02284 1.02119 0.0 
1.00193 1.02582 0.0 
1.02945 1.01807 0.0 
1.02862 1.01524 0.0 
0.996822 1.02266 0.0 
1.0151 1.01807 0.0 
1.01641 1.01582 0.0 
1.02916 1.02055 0.0 
1.00058 1.01113 0.0 
1.01 1.01192 0.0 
1.01016 1.01619 0.0 
0.995589 1.02427 0.0 
1.00135 1.01502 0.0 
1.01605 1.01636 0.0 
1.00691 1.01532 0.0 
0.998557 1.02332 0.0 
1.01365 1.01816 0.0 
1.04641 1.01268 0.0 
1.0208 1.01901 0.0 
0.999818 1.02007 0.0 
1.01959 1.02295 0.0 
1.02098 1.01638 0.0 
1.00759 1.01281 0.0 
1.01626 1.01361 0.0 
1.01615 1.01504 0.0 
1.00434 1.01265 0.0 
1.017 1.01373 0.0 
1.00367 1.01166 0.0 
1.00729 1.0171 0.0 
1.04292 1.01866 0.0 
1.04236 1.01621 0.0 
1.01164 1.01251 0.0 
1.00856 1.01588 0.0 
1.0093 1.01164 0.0 
1.02877 1.01682 0.0 
1.01216 1.01398 0.0 
1.01093 1.01377 0.0 
1.00471 1.02564 0.0 
1.02585 1.02106 0.0 
1.0031 1.02332 0.0 
1.0298 1.01933 0.0 
1.04502 1.01228 0.0 
1.01544 1.01647 0.0 
1.02613 1.01641 0.0 
1.0253 1.0165 0.0 
1.00839 1.0175 0.0 
1.03001 1.01842 0.0 
1.02612 1.02182 0.0 
1.0129 1.0219 0.0 
1.00889 1.0184 0.0 
1.01554 1.02233 0.0 
1.01055 1.02021 0.0 
1.02148 1.0213 0.0 
1.00951 1.01413 0.0 
1.00886 1.01249 0.0 
1.02175 1.0165 0.0 
1.00101 1.01164 0.0 
1.00488 1.01118 0.0 
0.999389 1.01101 0.0 
1.05523 1.02202 0.0 
1.01593 1.01817 0.0 
[...]
<PointData>
  <DataArray type = "Float64" Name="Vitesse" NumberOfComponents="3" format="ascii">
0.473903 0.0172813 0.0 
1.03006 0.000767254 0.0 
0.845265 0.649443 0.0 
1.1743 0.145781 0.0 
0.150593 -0.00190284 0.0 
1.22334 0.328432 0.0 
1.22463 0.342151 0.0 
1.19281 0.378425 0.0 
0.351365 0.230718 0.0 
1.21696 0.159262 0.0 
0.827919 0.0711722 0.0 
0.918484 0.00413571 0.0 
0 0 0.0 
0.339467 0.0327047 0.0 
0 0 0.0 
0.452008 0.0804789 0.0 
1.1921 0.128986 0.0 
1.00639 0.54463 0.0 
0.78327 0.541112 0.0 
0.480076 0.0260938 0.0 
1.22336 0.136039 0.0 
1.21787 0.310103 0.0 
0.997454 0.575099 0.0 
1.23028 0.320657 0.0 
0.875437 0.254951 0.0 
1.20257 0.355822 0.0 
1.2304 0.327482 0.0 
0.933817 0.0932278 0.0 
1.21464 0.359431 0.0 
1.2353 0.316826 0.0 
1.20965 0.372738 0.0 
0 0 0.0 
0 0 0.0 
0.689352 0.115333 0.0 
0.155149 0.0145907 0.0 
1.15891 0.43642 0.0 
0 0 0.0 
1.21424 0.347593 0.0 
0.273176 0.117084 0.0 
0 0 0.0 
0.147951 -0.00251412 0.0 
0 0 0.0 
0.975618 0.130249 0.0 
0.387688 0.0976671 0.0 
1.05029 0.55351 0.0 
0.351188 0.0101459 0.0 
0 0 0.0 
1.2254 0.338122 0.0 
0.244524 0.0178728 0.0 
0.0672987 -0.00359662 0.0 
0.430596 0.1206 0.0 
1.18668 0.322178 0.0 
0.962134 0.157061 0.0 
0 0 0.0 
1.15783 0.297936 0.0 
0.245877 0.00268132 0.0 
0 0 0.0 
1.2215 0.243968 0.0 
0.614352 0.0389 0.0 
1.16764 0.404201 0.0 
1.18756 0.415508 0.0 
0.960761 0.146938 0.0 
0 0 0.0 
1.13494 0.192514 0.0 
0.353615 0.0421165 0.0 
0.855625 0.583404 0.0 
1.20973 0.386739 0.0 
1.05315 0.17034 0.0 
0.888299 0.639374 0.0 
1.14809 0.260428 0.0 
0 0 0.0 
1.17951 0.427936 0.0 
0 0 0.0 
1.21592 0.37113 0.0 
0.781684 0.294919 0.0 
1.11156 0.203993 0.0 
0 0 0.0 
1.08497 0.171269 0.0 
0.434555 0.084292 0.0 
0.77264 0.24398 0.0 
1.24125 0.283116 0.0 
0 0 0.0 
0.991855 0.219088 0.0 
0.480705 0.147097 0.0 
0.501712 0.25002 0.0 
0.302693 0.167506 0.0 
0.986566 0.525466 0.0 
0.0743262 -0.00332553 0.0 
1.1429 0.477088 0.0 
0 0 0.0 
0.675196 0.0881095 0.0 
0.916674 0.127073 0.0 
0 0 0.0 
0.71965 0.0706898 0.0 
0 0 0.0 
1.14802 0.174524 0.0 
0.2628 0.0753993 0.0 
0.162809 0.0203249 0.0 
0.283848 0.0987553 0.0 
0.492123 0.0441173 0.0 
1.11536 0.352058 0.0 
0.468981 0.0733624 0.0 
1.0573 0.208016 0.0 
0.169768 0.0146661 0.0 
0.923613 0.11292 0.0 
0 0 0.0 
0.775913 0.094531 0.0 
0.405586 0.0345456 0.0 
1.20307 0.317985 0.0 
1.19626 0.270819 0.0 
1.21889 0.363275 0.0 
0.832882 0.158555 0.0 
0.249308 0.00737163 0.0 
1.06922 0.382686 0.0 
1.2365 0.245666 0.0 
1.06842 0.249691 0.0 
1.19039 0.396735 0.0 
0.131186 0.00664619 0.0 
0.990563 0.141168 0.0 
0.829159 0.0882011 0.0 
0.599826 0.0484183 0.0 
1.17885 0.435414 0.0 
1.22122 0.216218 0.0 
1.09959 0.156565 0.0 
1.18654 0.18704 0.0 
0 0 0.0 
0.789501 0.309288 0.0 
0.680518 0.0718788 0.0 
0 0 0.0 
1.15205 0.312498 0.0 
0.238976 0.00134065 0.0 
1.12383 0.221446 0.0 
1.11326 0.470982 0.0 
1.21074 0.338969 0.0 
0.683856 0.166432 0.0 
0 0 0.0 
0.510867 0.130719 0.0 
0.694334 0.193902 0.0 
1.14447 0.244263 0.0 
0.926869 0.422309 0.0 
1.22726 0.192998 0.0 
0.879951 0.457858 0.0 
1.02111 0.136011 0.0 
0.819101 0.0920531 0.0 
1.12102 0.172552 0.0 
0.984574 0.205634 0.0 
0.295865 0.0968385 0.0 
0.976903 0.426526 0.0 
0.115523 0.00229512 0.0 
0.873199 0.642213 0.0 
0.641393 0.111363 0.0 
0 0 0.0 
1.17114 0.208018 0.0 
0.955409 0.173512 0.0 
0 0 0.0 
1.19313 0.229903 0.0 
0.589885 0.052341 0.0 
0 0 0.0 
1.02738 0.399393 0.0 
0.592907 0.247952 0.0 
0.665649 0.093829 0.0 
1.22517 0.347963 0.0 
1.05255 0.306239 0.0 
0.650637 0.202339 0.0 
1.15422 0.213012 0.0 
0.146631 -0.000342781 0.0 
0.470794 0.16361 0.0 
1.16221 0.380819 0.0 
1.2041 0.38545 0.0 
0 0 0.0 
0.393176 0.0460341 0.0 
0.706922 0.284089 0.0 
0.0836239 -0.00126483 0.0 
1.10646 0.421865 0.0 
0.126661 0.00382078 0.0 
0.718894 0.0653825 0.0 
1.04488 0.177075 0.0 
0.941965 0.371138 0.0 
0.269833 0.0156331 0.0 
0.852604 0.118475 0.0 
1.24114 0.276504 0.0 
0.196925 0.015936 0.0 
1.1932 0.28729 0.0 
0.742634 0.251347 0.0 
0.11711 -4.46228e-05 0.0 
0.194499 0.0046345 0.0 
0.527153 0.0580136 0.0 
0.245066 0.0666318 0.0 
1.05522 0.151874 0.0 
0.298156 0.0143582 0.0 
0 0 0.0 
1.19152 0.417404 0.0 
0.125392 0.00529922 0.0 
1.16833 0.188338 0.0 
1.22464 0.230893 0.0 
1.23034 0.217668 0.0 
1.23451 0.300068 0.0 
0 0 0.0 
0.340429 0.021566 0.0 
0.60852 0.0619928 0.0 
0.348585 0.0521181 0.0 
0 0 0.0 
1.1817 0.433721 0.0 
0.88831 0.326186 0.0 
0.876087 0.189043 0.0 
0.321321 0.12092 0.0 
1.18779 0.299134 0.0 
1.00833 0.152331 0.0 
1.09323 0.270411 0.0 
0 0 0.0 
0 0 0.0 
0.621097 0.128645 0.0 
1.22396 0.283636 0.0 
0.556406 0.0796019 0.0 
1.14417 0.456593 0.0 
0.154183 0.00278722 0.0 
1.1072 0.522863 0.0 
1.166 0.228179 0.0 
1.16067 0.0759077 0.0 
0 0 0.0 
0.215474 0.0328931 0.0 
1.08683 0.522981 0.0 
1.04104 0.479406 0.0 
0.855634 0.191206 0.0 
0.250605 0.00526023 0.0 
0 0 0.0 
0 0 0.0 
0.0630655 -0.0018647 0.0 
0.777576 0.350154 0.0 
0.967614 0.597919 0.0 
0.256202 0.0169917 0.0 
0.959781 0.480266 0.0 
0.852491 0.0804864 0.0 
0.66999 0.240006 0.0 
0.360848 0.0140014 0.0 
0.857718 0.469757 0.0 
1.06161 0.46269 0.0 
1.22484 0.260871 0.0 
0.578485 0.062902 0.0 
0.745953 0.122584 0.0 
1.15223 0.168242 0.0 
0.904791 0.14865 0.0 
0.632492 0.3378 0.0 
0.146055 -0.00655609 0.0 
1.01516 0.109703 0.0 
1.1997 0.404658 0.0 
0.915473 0.102772 0.0 
1.20033 0.400508 0.0 
0.891835 0.369831 0.0 
1.0091 0.330264 0.0 
0.688329 0.32146 0.0 
1.18973 0.277517 0.0 
1.04842 0.135781 0.0 
1.19247 0.397214 0.0 
0.58416 0.282741 0.0 
1.04216 0.507042 0.0 
0.901806 0.574022 0.0 
0 0 0.0 
0.933453 0.262272 0.0 
0.99081 0.0298324 0.0 
0 0 0.0 
0 0 0.0 
1.03243 0.427797 0.0 
1.0011 0.330461 0.0 
0.8007 0.395711 0.0 
1.07329 0.537628 0.0 
0.505349 0.0752433 0.0 
1.23825 0.299853 0.0 
0.148891 -0.00639829 0.0 
0.243194 0.0363719 0.0 
0.822904 0.0801566 0.0 
0.977492 0.297377 0.0 
1.16604 0.441587 0.0 
0.867603 0.412871 0.0 
0.742413 0.0602681 0.0 
0 0 0.0 
0 0 0.0 
0.875458 0.526132 0.0 
1.23078 0.309702 0.0 
0.263654 0.130855 0.0 
0.75774 0.148544 0.0 
0.556473 0.244285 0.0 
0.565814 0.100381 0.0 
1.01223 0.427287 0.0 
0.893833 0.184456 0.0 
0.780541 0.233162 0.0 
0.703688 0.142971 0.0 
0.963534 0.187401 0.0 
1.16026 0.464421 0.0 
1.15838 0.0467975 0.0 
0 0 0.0 
1.00221 0.349369 0.0 
0.830416 0.149391 0.0 
1.20628 0.371715 0.0 
0.993283 0.3905 0.0 
0 0 0.0 
1.1778 0.335769 0.0 
0.74909 0.429958 0.0 
0.972766 0.441133 0.0 
0.00278015 -0.000133575 0.0 
0.603838 -0.0109816 0.0 
1.03834 0.317029 0.0 
1.04308 0.355646 0.0 
0.866232 0.107874 0.0 
0.9878 0.278023 0.0 
0.71485 -0.00868544 0.0 
0.30584 0.184244 0.0 
1.09182 0.244903 0.0 
1.0465 0.512818 0.0 
0.72852 -0.00983447 0.0 
1.11325 0.191395 0.0 
0.250694 0.0541721 0.0 
1.21946 0.35784 0.0 
0.961529 0.578091 0.0 
0.460009 0.0354437 0.0 
1.17083 0.449929 0.0 
0.66365 0.098732 0.0 
1.23467 0.279972 0.0 
0.783523 0.117429 0.0 
0.920023 0.316276 0.0 
0.519761 0.288331 0.0 
0.97091 0.339668 0.0 
0.515793 0.20151 0.0 
1.23049 0.332736 0.0 
0.440815 0.0152599 0.0 
1.01461 0.340295 0.0 
1.07371 0.226761 0.0 
0.736442 0.0941478 0.0 
0 0 0.0 
1.13 0.492591 0.0 
1.11555 0.506872 0.0 
1.21338 0.373267 0.0 
0 0 0.0 
0.651858 -0.0102065 0.0 
1.19221 0.373764 0.0 
0.931803 0.325043 0.0 
0.937312 0.370835 0.0 
1.03104 0.574113 0.0 
0.484647 0.032912 0.0 
0.47243 0.110785 0.0 
0.290145 -0.00808147 0.0 
0.908902 0.332156 0.0 
0.809916 0.131954 0.0 
0.952069 0.610884 0.0 
1.17775 0.350409 0.0 
0.811291 0.216278 0.0 
0 0 0.0 
0.682444 0.17973 0.0 
1.12603 0.503018 0.0 
1.20389 0.247184 0.0 
1.24191 0.260525 0.0 
1.03039 0.526488 0.0 
0.975453 0.0309499 0.0 
0.895676 0.351889 0.0 
1.21504 0.266231 0.0 
1.14344 0.274937 0.0 
0.981944 0.318399 0.0 
0.773923 0.477141 0.0 
0.781421 0.571962 0.0 
0.982959 0.402529 0.0 
0.890694 0.0792668 0.0 
0.972409 0.0434709 0.0 
0.827097 0.00267119 0.0 
0.507553 0.024155 0.0 
0.220559 0.043188 0.0 
1.01458 0.253569 0.0 
1.14152 0.338792 0.0 
0.74403 0.0811197 0.0 
0.310541 0.039073 0.0 
1.1392 0.455438 0.0 
1.2349 0.169348 0.0 
0.83546 0.651078 0.0 
0.944352 0.237301 0.0 
0.881884 0.402787 0.0 
1.221 0.294938 0.0 
1.16628 0.45038 0.0 
1.03092 0.0958997 0.0 
1.01614 0.374469 0.0 
0.729054 -0.00283163 0.0 
0.613254 0.391599 0.0 
0.961788 0.355708 0.0 
1.20334 0.388254 0.0 
0.898078 0.518377 0.0 
0 0 0.0 
0.27054 0.0022487 0.0 
0.206004 0.049343 0.0 
0.988378 0.232016 0.0 
0.973787 0.263769 0.0 
0 0 0.0 
1.23845 0.297914 0.0 
1.1707 0.422769 0.0 
1.13417 0.487838 0.0 
0.207636 0.0362151 0.0 
0.182248 0.0213729 0.0 
0.987723 0.515827 0.0 
0 0 0.0 
0.734075 0.0542852 0.0 
0 0 0.0 
1.20268 0.214417 0.0 
0 0 0.0 
0.977363 0.466355 0.0 
0.845738 0.124432 0.0 
1.14663 0.189123 0.0 
1.19714 0.201579 0.0 
1.17099 0.162414 0.0 
1.23598 0.261873 0.0 
0.965245 0.543409 0.0 
1.17899 0.200703 0.0 
1.03132 0.338127 0.0 
0.599279 0.0336606 0.0 
0.150451 -0.00347131 0.0 
0.951233 0.346292 0.0 
1.12021 0.31265 0.0 
0.646153 0.143906 0.0 
0.982844 0.096805 0.0 
0.796383 0.630558 0.0 
0 0 0.0 
1.09323 0.43878 0.0 
0.952021 0.319673 0.0 
0.933966 0.538097 0.0 
0.801731 0.194281 0.0 
1.07897 0.539234 0.0 
0.976671 0.352726 0.0 
1.16225 0.360404 0.0 
0.0208698 -0.001761 0.0 
1.03425 0.186902 0.0 
0.96741 0.409485 0.0 
1.24359 0.264347 0.0 
0.525797 0.0680803 0.0 
0.723598 0.372508 0.0 
0 0 0.0 
0.450154 0.0962447 0.0 
0.930651 0.60598 0.0 
0 0 0.0 
0.856604 0.614697 0.0 
1.11812 0.504687 0.0 
0.51537 0.00150244 0.0 
0.23523 -0.00672601 0.0 
0 0 0.0 
1.1006 0.491396 0.0 
0 0 0.0 
0.393912 0.0122597 0.0 
0.493994 0.161432 0.0 
0.572673 0.213463 0.0 
1.06723 0.345151 0.0 
1.11216 0.150807 0.0 
1.04045 0.376425 0.0 
0.79922 0.0608069 0.0 
0.00847582 -0.000437129 0.0 
0.864913 0.224363 0.0 
0.370151 0.0176867 0.0 
0.405895 0.0248137 0.0 
1.14326 0.48469 0.0 
0.645486 0.0374501 0.0 
1.16149 0.161161 0.0 
1.20309 0.360224 0.0 
1.15592 0.461933 0.0 
1.22755 0.323024 0.0 
1.1802 0.411198 0.0 
1.20532 0.226019 0.0 
0.830514 0.35742 0.0 
0.434227 0.197755 0.0 
0.520344 0.0613225 0.0 
0.829905 0.629637 0.0 
0.68983 0.469961 0.0 
0.762428 0.591229 0.0 
0.811451 0.00451385 0.0 
1.10428 0.290122 0.0 
1.15314 0.47281 0.0 
0 0 0.0 
1.22132 0.351063 0.0 
0.244993 0.111894 0.0 
1.02208 0.566619 0.0 
1.18435 0.176567 0.0 
0.768749 0.0107935 0.0 
1.21173 0.201009 0.0 
0 0 0.0 
1.24321 0.246536 0.0 
0.912888 0.622063 0.0 
1.11934 0.144973 0.0 
0.91027 0.62722 0.0 
1.09112 0.51066 0.0 
1.18898 0.422055 0.0 
0.868242 0.624535 0.0 
0 0 0.0 
1.10882 0.376372 0.0 
1.07082 0.551551 0.0 
0.892898 0.160334 0.0 
1.02723 0.400774 0.0 
0 0 0.0 
1.03565 0.353606 0.0 
1.10164 0.270183 0.0 
1.04772 0.567752 0.0 
1.19023 0.0845066 0.0 
0.46617 -0.00591787 0.0 
0 0 0.0 
1.02454 0.581094 0.0 
1.11291 0.134803 0.0 
0.0873075 -0.00490468 0.0 
1.10278 0.519161 0.0 
0.935644 0.308125 0.0 
0.905409 0.285256 0.0 
1.00214 0.594775 0.0 
1.03306 0.527345 0.0 
0.993821 0.419382 0.0 
1.13952 0.0354481 0.0 
1.23163 0.309586 0.0 
0 0 0.0 
0.763915 0.0320594 0.0 
0.945124 0.391117 0.0 
0.874577 -0.00863709 0.0 
0 0 0.0 
0.666219 0.473572 0.0 
1.05682 0.333281 0.0 
0.569493 0.337884 0.0 
0.960556 0.614343 0.0 
0.749116 0.554555 0.0 
0.92847 0.626089 0.0 
1.12302 0.487964 0.0 
1.23685 0.293627 0.0 
0.956468 0.516486 0.0 
0.586998 0.166938 0.0 
0.799191 0.604519 0.0 
0 0 0.0 
0 0 0.0 
0.278508 0.109773 0.0 
0.910827 0.359337 0.0 
0.025702 -0.00208051 0.0 
1.14006 0.335935 0.0 
0.673668 0.0772866 0.0 
0.913536 0.413791 0.0 
0.646019 -0.00905445 0.0 
1.14015 0.0407075 0.0 
0 0 0.0 
1.24051 0.279052 0.0 
1.0187 0.323878 0.0 
0.284975 -0.00678252 0.0 
1.02077 0.360876 0.0 
1.13753 0.410718 0.0 
1.23711 0.228138 0.0 
0.925356 -0.00607614 0.0 
0.805259 0.524941 0.0 
0.894167 0.376782 0.0 
1.04832 0.284123 0.0 
0.130907 -0.00620498 0.0 
0.87839 -0.00592334 0.0 
1.08909 0.536762 0.0 
1.0497 0.282297 0.0 
1.13875 0.47315 0.0 
0.231007 -0.00666052 0.0 
0.965311 0.388427 0.0 
1.02371 0.379922 0.0 
0.986698 0.341257 0.0 
1.08434 0.355145 0.0 
1.04577 0.392835 0.0 
0.937758 0.440277 0.0 
0.911061 0.440574 0.0 
1.1097 0.309748 0.0 
0.862337 0.367951 0.0 
1.10436 0.0268941 0.0 
0.544859 -0.00326668 0.0 
0.862735 0.0411817 0.0 
0.9877 0.296796 0.0 
0.841913 0.426163 0.0 
0.867677 0.386978 0.0 
0.0363428 -0.0027125 0.0 
1.05715 0.108396 0.0 
0.673834 -0.00524676 0.0 
0.871324 0.350027 0.0 
0.546782 -0.00734175 0.0 
0.904545 0.396817 0.0 
1.07231 0.423574 0.0 
1.21374 0.176676 0.0 
1.0201 0.413242 0.0 
1.18641 0.198167 0.0 
1.18285 0.178816 0.0 
0.965216 0.324168 0.0 
0.974248 0.490586 0.0 
0.822796 0.389766 0.0 
1.02228 0.305208 0.0 
1.00823 0.288828 0.0 
0 0 0.0 
0.0111183 -0.0011031 0.0 
1.14448 0.290232 0.0 
0.777275 -0.00647638 0.0 
0.884533 0.441377 0.0 
0.974407 0.369069 0.0 
1.06818 0.209252 0.0 
0.29711 -0.00611378 0.0 
1.01857 0.00815902 0.0 
0.909829 -0.00533811 0.0 
0.846404 0.356139 0.0 
0.86777 0.428423 0.0 
0.816241 -0.0084223 0.0 
0.0193227 -0.00130258 0.0 
0.914325 0.00107127 0.0 
0.844627 0.378463 0.0 
0.0094103 -0.000717901 0.0 
0.918357 0.316941 0.0 
1.00336 0.403776 0.0 
0.980705 0.383743 0.0 
0.629962 0.010808 0.0 
0.866615 -0.00362462 0.0 
0.941302 0.335537 0.0 
1.05733 0.315352 0.0 
0.2016 -0.00725296 0.0 
1.00294 0.309908 0.0 
1.08475 0.375398 0.0 
1.06384 0.36607 0.0 
0.100856 -0.00528789 0.0 
1.07834 0.449796 0.0 
1.11244 0.485102 0.0 
0 0 0.0 
0.860635 0.408876 0.0 
1.12748 0.319826 0.0 
0.773741 -0.00495435 0.0 
1.20985 0.169079 0.0 
1.03105 0.0335002 0.0 
1.19883 0.171133 0.0 
0.944789 -0.0026364 0.0 
1.07423 0.302537 0.0 
0.825254 0.432925 0.0 
1.18279 0.0709009 0.0 
0.358636 -0.00452953 0.0 
0.927636 0.564223 0.0 
0.888719 0.335661 0.0 
0.842711 0.400628 0.0 
1.00609 0.25608 0.0 
1.12113 0.340127 0.0 
1.15714 0.156019 0.0 
1.04516 0.00939961 0.0 
1.00759 0.38239 0.0 
0.991067 0.374745 0.0 
0.315444 0.00428369 0.0 
0.016803 -0.00130295 0.0 
1.0916 0.31608 0.0 
1.16253 0.237985 0.0 
0.268763 -0.00872012 0.0 
0.962493 -0.00280779 0.0 
1.07188 0.324588 0.0 
0.956961 0.427404 0.0 
1.02001 0.00470991 0.0 
0.0700909 -0.00518024 0.0 
1.1884 0.155627 0.0 
0.616022 -0.00874577 0.0 
1.02136 0.264675 0.0 
1.04865 0.23169 0.0 
0.0628892 -0.004014 0.0 
1.16102 0.145582 0.0 
0.713252 0.00329151 0.0 
0.992323 0.000485497 0.0 
0.976612 0.0078107 0.0 
0.709582 -0.00711373 0.0 
0.808578 0.440412 0.0 
1.05018 0.300031 0.0 
0.867953 0.485477 0.0 
1.10674 0.328022 0.0 
0.604792 -0.00307081 0.0 
0.993501 0.263372 0.0 
0.956619 0.451362 0.0 
0.912481 0.0464209 0.0 
0.920318 -0.00318356 0.0 
1.03526 0.303109 0.0 
0.996845 0.00321128 0.0 
0.0932815 -0.00507717 0.0 
1.02015 0.277169 0.0 
1.03594 0.274405 0.0 
0.581778 -0.00904116 0.0 
0.825327 0.02965 0.0 
1.02251 0.248879 0.0 
1.03845 0.259369 0.0 
1.03091 0.288722 0.0 
1.13725 0.161296 0.0 
0.915444 -0.0088815 0.0 
0.474354 -0.00911768 0.0 
0.222551 -0.00597221 0.0 
1.06149 0.386536 0.0 
0.917372 0.37442 0.0 
0.831466 0.455447 0.0 
0.141288 -0.00605774 0.0 
1.12323 0.235511 0.0 
1.10346 0.450949 0.0 
0.950812 -0.00565083 0.0 
1.14117 0.201162 0.0 
0.955328 0.370171 0.0 
0.381015 -0.00252324 0.0 
0.951296 0.295816 0.0 
0.829567 -0.00953789 0.0 
1.07482 0.119831 0.0 
1.17025 0.253718 0.0 
1.15476 0.22252 0.0 
1.09565 0.299194 0.0 
1.05395 0.434399 0.0 
1.15524 0.282264 0.0 
0.182412 -0.00636747 0.0 
1.1493 0.318725 0.0 
1.13962 0.230859 0.0 
1.17937 0.239137 0.0 
1.05606 0.0135408 0.0 
0.929429 0.350462 0.0 
0.930959 0.0521924 0.0 
1.10939 0.216193 0.0 
1.14478 0.0813671 0.0 
0.958895 -0.00742752 0.0 
0.850402 0.442364 0.0 
1.1775 0.211434 0.0 
0.894158 0.420571 0.0 
1.06875 0.230104 0.0 
1.10378 0.189286 0.0 
0.423561 -0.00628847 0.0 
0.977956 0.423396 0.0 
1.18461 0.224882 0.0 
0.520404 -0.0103726 0.0 
1.11237 0.262767 0.0 
1.04122 0.244111 0.0 
1.09902 0.361765 0.0 
1.1396 0.174715 0.0 
0.896148 0.0755316 0.0 
1.00618 0.271362 0.0 
1.05779 0.219564 0.0 
1.11159 0.227618 0.0 
1.11571 0.178744 0.0 
0.953756 0.406806 0.0 
0.237452 -0.00815247 0.0 
0.324389 -0.00901016 0.0 
1.12984 0.174111 0.0 
0.816486 0.478066 0.0 
0.815433 0.412753 0.0 
1.11651 0.250189 0.0 
1.07448 0.218791 0.0 
0.508665 -0.0119064 0.0 
1.05702 0.27073 0.0 
0.899718 0.319297 0.0 
0.124202 -0.00631404 0.0 
1.06688 0.285591 0.0 
1.08821 0.208939 0.0 
1.22827 0.165741 0.0 
1.07642 0.201044 0.0 
1.20033 0.236155 0.0 
0.0804716 -0.0047607 0.0 
1.08951 0.225198 0.0 
0.0489801 -0.00325537 0.0 
1.07277 0.250243 0.0 
1.14751 0.184193 0.0 
1.0544 0.253139 0.0 
0.400446 -0.0112772 0.0 
1.1654 0.355093 0.0 
1.08174 0.23984 0.0 
0.925101 0.393904 0.0 
1.16908 0.224389 0.0 
0.823255 0.00710415 0.0 
1.13249 0.219394 0.0 
0.321723 -0.0108977 0.0 
1.1152 0.193039 0.0 
1.13029 0.187503 0.0 
0.988956 0.358073 0.0 
0.713309 0.0454639 0.0 
1.03326 0.421167 0.0 
0.966582 0.299365 0.0 
1.10276 0.345978 0.0 
1.09954 0.28358 0.0 
1.21961 0.242563 0.0 
0.712994 0.00936521 0.0 
1.22291 0.137227 0.0 
0.544198 0.0238962 0.0 
0 0 0.0 
0.918776 0.487333 0.0 
0.274133 -0.00544768 0.0 
0.982805 -0.00865011 0.0 
1.21334 0.159874 0.0 
1.04493 0.0838956 0.0 
0.441255 -0.00727704 0.0 
1.2181 0.199641 0.0 
1.12293 0.206235 0.0 
0.982713 0.120888 0.0 
1.16364 0.18041 0.0 
1.08869 0.519855 0.0 
1.19384 0.0989981 0.0 
1.15686 0.211392 0.0 
0.233298 -0.00698695 0.0 
0.468038 -0.0115711 0.0 
1.17075 0.195946 0.0 
1.09761 0.212522 0.0 
1.21607 0.220595 0.0 
1.10267 0.23932 0.0 
1.13558 0.24462 0.0 
0.614374 -0.00724669 0.0 
1.07225 0.2607 0.0 
1.17075 0.282053 0.0 
1.10277 0.202973 0.0 
1.13866 0.303065 0.0 
1.15017 0.236999 0.0 
1.15883 0.299127 0.0 
0 0 0.0 
1.1186 0.276649 0.0 
1.15612 0.194693 0.0 
0.384365 -0.00452192 0.0 
1.23819 0.193444 0.0 
0.941425 0.490126 0.0 
1.1287 0.287635 0.0 
0.317281 -0.00766128 0.0 
1.09396 0.254913 0.0 
0.976996 0.286787 0.0 
1.1514 0.252349 0.0 
1.16133 0.267473 0.0 
0.0164664 -0.00166348 0.0 
1.15226 0.16629 0.0 
0.913558 0.00902701 0.0 
1.13488 0.135501 0.0 
1.23406 0.179374 0.0 
1.14669 0.263827 0.0 
1.17715 0.267356 0.0 
1.1712 0.103675 0.0 
1.07056 0.0943029 0.0 
1.21027 0.115567 0.0 
1.17931 0.0750464 0.0 
0.773343 0.00409684 0.0 
1.10524 0.403674 0.0 
0.932343 0.418711 0.0 
1.18411 0.101238 0.0 
1.08056 0.399866 0.0 
1.15203 0.117859 0.0 
0.931576 0.463456 0.0 
1.1145 0.0901552 0.0 
1.08348 0.109168 0.0 
1.14096 0.276038 0.0 
1.0104 0.514188 0.0 
1.19045 0.257614 0.0 
1.08441 0.272322 0.0 
1.2367 0.165053 0.0 
1.12605 0.371585 0.0 
0.993125 0.440665 0.0 
1.20229 0.193106 0.0 
1.22397 0.172379 0.0 
1.06136 0.24211 0.0 
1.11352 0.293031 0.0 
1.12374 0.302576 0.0 
1.23961 0.190222 0.0 
1.17587 0.0795738 0.0 
1.13245 0.260696 0.0 
1.08422 0.288675 0.0 
0.802331 0.462813 0.0 
1.19793 0.212565 0.0 
0.796525 -0.00717892 0.0 
1.03418 0.551322 0.0 
1.22701 0.186989 0.0 
1.2257 0.129544 0.0 
1.17051 0.379317 0.0 
1.22973 0.140188 0.0 
1.1368 0.102869 0.0 
0.907471 0.544643 0.0 
1.1896 0.41119 0.0 
0.651792 0.509597 0.0 
1.19985 0.109207 0.0 
1.22688 0.134717 0.0 
1.16603 0.127293 0.0 
0.681104 0.038106 0.0 
1.18087 0.393937 0.0 
1.09472 0.38798 0.0 
0.30798 -0.00836766 0.0 
1.03167 0.443601 0.0 
1.20383 0.295055 0.0 
1.05191 0.487757 0.0 
0 0 0.0 
1.00183 0.462123 0.0 
1.14878 0.100869 0.0 
0.545252 -0.0104959 0.0 
0.869958 0.593888 0.0 
0.611317 0.0304792 0.0 
1.00075 0.487682 0.0 
1.05442 0.459102 0.0 
0.959723 0.490677 0.0 
0.0477538 -0.00319502 0.0 
0.900267 0.604686 0.0 
1.20221 0.116444 0.0 
0.960556 0.0802645 0.0 
1.10708 0.378531 0.0 
1.01234 0.4487 0.0 
1.11176 0.107208 0.0 
1.17798 0.125012 0.0 
1.02358 0.470246 0.0 
0.974245 0.589085 0.0 
0.88831 0.52539 0.0 
0 0 0.0 
1.2081 0.148133 0.0 
1.20414 0.105604 0.0 
1.22383 0.12317 0.0 
0.878422 0.366568 0.0 
1.14888 0.0770605 0.0 
0.954638 0.550935 0.0 
1.12583 0.116726 0.0 
0.2083 -0.00628165 0.0 
1.23216 0.151161 0.0 
1.21561 0.135485 0.0 
1.22209 0.126443 0.0 
1.1907 0.135129 0.0 
0.840957 0.485756 0.0 
0.717754 0.0168846 0.0 
0.788864 0.449009 0.0 
1.23398 0.15509 0.0 
1.02695 0.497459 0.0 
1.11571 0.0940409 0.0 
1.08242 0.49907 0.0 
1.09784 0.476904 0.0 
1.18826 0.114216 0.0 
1.09105 0.0921861 0.0 
1.19107 0.148588 0.0 
0.888868 0.457265 0.0 
1.23748 0.268866 0.0 
0.834426 0.542238 0.0 
0.90465 0.47006 0.0 
0.891539 0.576884 0.0 
1.18181 0.298442 0.0 
1.12126 0.466681 0.0 