<VTKFile type="UnstructuredGrid" version="0.1" byte_order="LittleEndian">
  <UnstructuredGrid>
    <Piece NumberOfPoints="14165" NumberOfCells="27608">
      <Points>
        <DataArray type = "Float64" NumberOfComponents="3" format="ascii">
1.18352 0.959607 0.0 
1.18093 0.959026 0.0 
1.17415 0.996738 0.0 
1.17294 0.996522 0.0 
2.7809 1.00392 0.0 
1.17251 0.996149 0.0 
1.21078 0.987509 0.0 
1.20356 0.987658 0.0 
1.97085 0.96611 0.0 
1.18137 0.988492 0.0 
1.17703 0.98582 0.0 
1.20813 0.993656 0.0 
1.2022 0.995018 0.0 
2.80308 1.0103 0.0 
1.21121 0.987925 0.0 
2.06744 1.0223 0.0 
1.20267 0.998022 0.0 
2.68257 0.946422 0.0 
1.93367 0.994828 0.0 
2.76663 1.00798 0.0 
1.19693 0.986324 0.0 
1.17234 0.988287 0.0 
1.42045 1.03798 0.0 
1.21304 0.995168 0.0 
1.89652 0.994881 0.0 
1.20952 0.995148 0.0 
1.1834 0.998355 0.0 
1.22565 0.995371 0.0 
1.19244 0.993362 0.0 
2.92053 0.946929 0.0 
1.14886 0.991992 0.0 
1.43623 1.04383 0.0 
1.21084 0.994584 0.0 
2.01217 0.996821 0.0 
1.15079 0.991892 0.0 
1.21894 0.994638 0.0 
1.18783 1.0018 0.0 
3.01807 0.955615 0.0 
2.61132 0.957287 0.0 
1.19832 0.986631 0.0 
3.44568 1.00484 0.0 
1.97018 0.994738 0.0 
3.18715 0.958878 0.0 
1.155 0.993199 0.0 
1.19422 0.987056 0.0 
2.79282 1.05541 0.0 
1.97391 0.973788 0.0 
1.19767 1.00053 0.0 
1.20523 1.00252 0.0 
1.20173 0.987508 0.0 
1.17378 0.996412 0.0 
1.94076 0.985178 0.0 
1.95217 0.963285 0.0 
1.20813 0.987239 0.0 
1.20883 0.99438 0.0 
1.18822 0.98592 0.0 
1.16729 0.995506 0.0 
1.20646 0.987527 0.0 
2.00324 0.998781 0.0 
1.73058 1.01042 0.0 
3.26136 0.956639 0.0 
2.58553 1.01129 0.0 
1.19721 0.987328 0.0 
1.78978 0.997002 0.0 
1.19462 0.990524 0.0 
1.23485 0.996045 0.0 
1.16174 0.99448 0.0 
3.17068 0.997216 0.0 
1.22614 0.992026 0.0 
1.21362 1.00186 0.0 
1.20861 0.99593 0.0 
1.98449 0.996865 0.0 
1.16043 0.994232 0.0 
1.20506 0.993378 0.0 
1.19198 0.999804 0.0 
1.20357 0.990795 0.0 
1.19225 1.0002 0.0 
3.126 1.03843 0.0 
1.16648 0.992814 0.0 
1.19292 0.996675 0.0 
1.18738 0.999017 0.0 
1.19177 0.987536 0.0 
1.18054 0.997863 0.0 
1.17948 0.985186 0.0 
2.9411 0.954921 0.0 
1.16844 0.995715 0.0 
3.35811 0.997335 0.0 
3.5 0.925926 0.0 
1.20936 0.988041 0.0 
1.21329 0.999968 0.0 
1.23011 0.994551 0.0 
1.15385 0.992973 0.0 
1.18929 0.999863 0.0 
1.19817 0.986155 0.0 
1.18322 0.997988 0.0 
1.1963 1.00117 0.0 
1.1925 1.0002 0.0 
1.19149 0.999705 0.0 
2.78835 0.992894 0.0 
1.19134 0.986871 0.0 
3.18934 0.953552 0.0 
1.44934 1.02434 0.0 
1.16547 0.993474 0.0 
1.20286 0.995829 0.0 
3.11772 1.03324 0.0 
3.23213 1.03376 0.0 
3.04483 0.919656 0.0 
3.3141 1.04795 0.0 
1.95376 0.996574 0.0 
1.20291 1.00192 0.0 
2.72811 1.03273 0.0 
1.21246 0.997494 0.0 
1.17905 0.990511 0.0 
2.50344 1.00338 0.0 
1.1937 0.987398 0.0 
1.18893 1.00218 0.0 
1.19174 0.999753 0.0 
3.10472 0.956951 0.0 
1.17524 0.990915 0.0 
1.20543 0.98736 0.0 
2.58736 0.953691 0.0 
1.17466 0.996292 0.0 
1.21302 0.987959 0.0 
1.18407 0.990553 0.0 
2.56495 1.01607 0.0 
1.18446 0.985331 0.0 
3.5 1.03918 0.0 
1.20532 0.987713 0.0 
2.05983 1.03803 0.0 
1.23308 0.994021 0.0 
2.48146 1.0116 0.0 
1.39629 1.05098 0.0 
1.21971 0.988977 0.0 
1.17629 0.988148 0.0 
2.86128 0.95708 0.0 
1.18542 0.985688 0.0 
3.34274 1.03203 0.0 
1.21006 0.993087 0.0 
1.1944 0.986694 0.0 
1.19861 0.987094 0.0 
1.14741 0.991702 0.0 
1.17181 0.995003 0.0 
2.5056 0.956726 0.0 
1.19382 0.986363 0.0 
1.15153 0.99252 0.0 
1.20017 0.987318 0.0 
1.17229 0.985796 0.0 
1.22846 0.994026 0.0 
1.22263 0.994834 0.0 
3.09632 0.950289 0.0 
1.18312 0.985338 0.0 
1.18279 0.997487 0.0 
1.38133 1.04211 0.0 
2.76743 0.956137 0.0 
2.30846 0.956356 0.0 
1.20067 0.986706 0.0 
1.1814 0.997684 0.0 
3.21417 0.947189 0.0 
3.22361 1.02042 0.0 
1.1764 0.986627 0.0 
1.17009 0.995695 0.0 
1.20272 1.00063 0.0 
1.20714 0.98808 0.0 
2.40182 0.956103 0.0 
1.18939 0.986107 0.0 
1.2257 0.993575 0.0 
1.17378 0.985232 0.0 
1.93448 0.965276 0.0 
1.16669 0.994898 0.0 
3.182 1.02722 0.0 
3.27233 0.951365 0.0 
1.20318 1.00134 0.0 
1.58842 1.03677 0.0 
1.15588 0.991598 0.0 
3.44884 1.04294 0.0 
1.15189 0.991656 0.0 
2.73281 1.00555 0.0 
1.35363 1.05064 0.0 
1.18106 0.986917 0.0 
1.1936 1.00165 0.0 
1.19328 1.00112 0.0 
2.25915 0.958502 0.0 
1.18448 0.998283 0.0 
2.68834 0.954941 0.0 
1.21313 0.994404 0.0 
2.00626 0.963341 0.0 
2.19736 0.958148 0.0 
1.18505 0.986127 0.0 
2.23059 0.954792 0.0 
1.86576 0.96773 0.0 
1.18019 0.985923 0.0 
1.90457 0.966193 0.0 
2.12175 0.958648 0.0 
2.04143 0.960028 0.0 
1.15462 0.992715 0.0 
1.21323 0.993231 0.0 
1.18789 0.986824 0.0 
1.20112 0.987109 0.0 
1.18235 0.986538 0.0 
1.21414 0.988726 0.0 
2.20918 1.02787 0.0 
2.34574 1.02661 0.0 
2.71601 1.02948 0.0 
1.17484 0.986992 0.0 
3.5 0.950849 0.0 
1.17145 0.987215 0.0 
2.80221 0.941541 0.0 
2.27436 1.02448 0.0 
3.5 0.942541 0.0 
1.18214 0.985026 0.0 
1.16744 0.99129 0.0 
1.15269 0.992746 0.0 
2.25799 0.949367 0.0 
1.1686 0.987712 0.0 
2.59001 1.02437 0.0 
1.18679 0.999527 0.0 
1.17834 0.986471 0.0 
2.82015 1.03255 0.0 
1.29482 1.04933 0.0 
1.21177 0.998191 0.0 
1.22388 0.999322 0.0 
2.35654 0.948596 0.0 
2.54503 0.927661 0.0 
1.18292 0.986229 0.0 
2.56795 1.03682 0.0 
2.78445 0.925818 0.0 
1.20939 0.988634 0.0 
2.29862 1.00071 0.0 
1.18559 0.988688 0.0 
1.21063 1.00035 0.0 
2.83511 0.982915 0.0 
2.21909 1.02005 0.0 
2.86251 1.01694 0.0 
3.03089 1.04202 0.0 
2.36369 0.940791 0.0 
1.21266 0.988381 0.0 
2.90201 1.0129 0.0 
1.18159 0.986136 0.0 
1.18681 0.985735 0.0 
1.15207 0.992226 0.0 
2.63208 1.03208 0.0 
1.18683 1.00137 0.0 
1.17837 0.997163 0.0 
1.45186 1.02184 0.0 
1.19543 0.98743 0.0 
1.20207 0.986944 0.0 
1.1534 0.9923 0.0 
1.38286 1.04715 0.0 
1.16793 0.995299 0.0 
1.71745 0.984697 0.0 
1.81938 0.997216 0.0 
2.62029 0.930632 0.0 
1.17983 0.997487 0.0 
1.2129 1.00044 0.0 
1.17774 0.985502 0.0 
2.72299 1.04528 0.0 
2.52997 1.03278 0.0 
2.16671 0.996993 0.0 
2.91908 1.02114 0.0 
1.68144 0.954236 0.0 
1.19713 0.986797 0.0 
1.20055 0.992058 0.0 
3.10808 1.05708 0.0 
1.16988 0.995152 0.0 
1.19133 0.986403 0.0 
2.94237 1.05664 0.0 
1.56181 1.03258 0.0 
2.44834 0.942175 0.0 
1.18433 0.986524 0.0 
1.21826 0.988668 0.0 
2.89352 0.951226 0.0 
1.67953 1.03559 0.0 
1.97913 0.96057 0.0 
1.36622 1.04508 0.0 
1.18619 0.986484 0.0 
1.18735 0.958285 0.0 
1.50156 0.949992 0.0 
1.20674 0.988762 0.0 
2.84362 0.913145 0.0 
1.70833 0.9493 0.0 
2.89759 1.05223 0.0 
3.42173 0.948244 0.0 
1.16465 0.991749 0.0 
1.90433 1.03583 0.0 
1.1862 0.986051 0.0 
2.95191 0.933635 0.0 
1.82921 1.03775 0.0 
1.48051 1.02674 0.0 
1.17196 0.986363 0.0 
3.08006 0.940042 0.0 
1.20748 0.961718 0.0 
1.18406 0.984049 0.0 
1.18277 0.987728 0.0 
1.169 0.995416 0.0 
1.51889 1.02408 0.0 
1.19156 0.990995 0.0 
1.21576 0.994508 0.0 
1.20263 0.993989 0.0 
2.2592 0.923685 0.0 
3.16852 1.01619 0.0 
1.1927 1.00001 0.0 
2.55143 0.964401 0.0 
1.75309 0.946476 0.0 
1.49905 0.947575 0.0 
1.18257 0.985798 0.0 
1.82464 1.00049 0.0 
1.19275 0.987067 0.0 
2.852 1.01162 0.0 
1.58294 1.02485 0.0 
1.54241 1.02567 0.0 
1.18974 0.987056 0.0 
1.43049 1.05175 0.0 
1.50901 1.02571 0.0 
1.18011 0.989464 0.0 
1.1788 0.985928 0.0 
1.59499 1.02633 0.0 
1.18155 0.984705 0.0 
1.4645 1.02273 0.0 
1.18137 0.984082 0.0 
1.96334 0.958182 0.0 
1.61509 1.03273 0.0 
1.47145 1.0239 0.0 
2.83426 1.0068 0.0 
1.19564 0.986893 0.0 
1.62245 1.03455 0.0 
1.48881 1.02491 0.0 
1.16822 0.994964 0.0 
1.17707 0.985171 0.0 
1.18039 0.986319 0.0 
1.17588 0.986073 0.0 
1.64964 1.04418 0.0 
1.1698 0.988884 0.0 
1.165 0.995086 0.0 
1.17528 0.985551 0.0 
1.16959 0.995925 0.0 
1.17744 0.98477 0.0 
1.16759 0.99437 0.0 
2.65669 1.01414 0.0 
1.64263 1.02914 0.0 
1.21432 0.988298 0.0 
2.71294 0.934268 0.0 
1.17132 0.995863 0.0 
2.48595 1.0295 0.0 
2.47089 0.938505 0.0 
1.2015 0.992973 0.0 
1.14914 0.991525 0.0 
2.65957 0.942622 0.0 
1.17068 0.99612 0.0 
1.20615 0.989457 0.0 
1.65678 1.03092 0.0 
2.89626 0.919677 0.0 
1.83695 0.97908 0.0 
1.84586 0.976785 0.0 
1.18905 0.999288 0.0 
1.18897 0.987652 0.0 
2.45029 1.00293 0.0 
1.18003 0.997167 0.0 
1.66372 1.02696 0.0 
1.18742 0.986216 0.0 
2.64234 1.00835 0.0 
1.19334 0.986717 0.0 
1.15362 0.991539 0.0 
2.48191 0.945128 0.0 
1.19439 0.986093 0.0 
1.80429 0.998596 0.0 
1.15504 0.992245 0.0 
3.29638 0.942374 0.0 
1.18407 0.985727 0.0 
1.20473 0.988152 0.0 
1.20586 0.987084 0.0 
1.19553 0.98612 0.0 
1.86711 0.965134 0.0 
2.47011 1.03954 0.0 
1.55448 1.02723 0.0 
1.17178 0.996315 0.0 
2.35214 1.02107 0.0 
1.18129 0.985745 0.0 
1.19956 0.988771 0.0 
1.36752 1.05369 0.0 
2.22649 1.0239 0.0 
3.4008 1.00071 0.0 
1.51065 1.03244 0.0 
2.41724 1.01294 0.0 
1.17523 0.989196 0.0 
3.42534 0.924394 0.0 
1.18945 0.989808 0.0 
1.44324 1.02334 0.0 
1.19318 0.985923 0.0 
1.77682 0.998122 0.0 
1.4602 1.0256 0.0 
1.20794 0.987629 0.0 
1.19436 0.9879 0.0 
1.57777 1.03434 0.0 
1.21717 0.988379 0.0 
2.68426 1.00503 0.0 
2.30283 1.01899 0.0 
1.20323 0.988715 0.0 
2.07123 1.04831 0.0 
1.16511 0.9948 0.0 
2.15849 0.951126 0.0 
3.10005 1.02744 0.0 
3.07979 1.01579 0.0 
2.49471 0.933285 0.0 
1.1888 0.986436 0.0 
2.35515 0.967767 0.0 
1.52199 1.05512 0.0 
1.17872 0.987339 0.0 
1.18471 0.989586 0.0 
2.04453 0.948109 0.0 
1.19741 0.988 0.0 
1.51812 1.03478 0.0 
2.73152 1.0167 0.0 
2.35739 0.933619 0.0 
1.60086 1.03068 0.0 
1.19006 0.985022 0.0 
2.77431 0.987317 0.0 
1.18767 0.990513 0.0 
1.17599 0.984889 0.0 
1.60184 1.05088 0.0 
1.16206 0.993114 0.0 
1.4259 1.02472 0.0 
2.39935 1.04839 0.0 
1.21649 0.987969 0.0 
1.19857 0.990181 0.0 
1.46866 1.04113 0.0 
2.67845 0.912501 0.0 
1.18765 0.985376 0.0 
1.19909 0.987595 0.0 
1.53673 1.04198 0.0 
3.329 0.959606 0.0 
1.8081 0.980265 0.0 
1.18169 0.9854 0.0 
1.74393 1.02176 0.0 
1.19971 0.986896 0.0 
1.17825 0.985174 0.0 
3.20269 0.919516 0.0 
2.33395 0.95253 0.0 
1.47218 1.05 0.0 
1.1921 0.988379 0.0 
1.17914 0.98553 0.0 
1.20076 0.987705 0.0 
1.5877 1.0461 0.0 
1.65876 0.952004 0.0 
1.21127 0.993887 0.0 
2.17233 1.03129 0.0 
1.89967 0.96356 0.0 
1.20041 0.988127 0.0 
1.17614 0.985392 0.0 
1.87278 0.950973 0.0 
1.5483 1.03052 0.0 
3.35225 0.952806 0.0 
1.68352 1.05616 0.0 
1.18621 0.987099 0.0 
1.1838 0.987105 0.0 
[...]
<PointData>
  <DataArray type = "Float64" Name="Vitesse" NumberOfComponents="3" format="ascii">
0.997937 0.0163731 0.0 
1.01146 0.0147353 0.0 
-7.93022e-45 -1.40735e-45 0.0 
-5.13857e-44 -9.11932e-45 0.0 
0.794519 -0.00156283 0.0 
-0.00428125 -0.000763159 0.0 
0.00107744 0.00217305 0.0 
-0.00692585 -0.000675785 0.0 
0.824832 0.002065 0.0 
-0.0339598 -0.00845167 0.0 
-0.00773446 -0.00614702 0.0 
-0.05198 -0.00142181 0.0 
-0.0508223 -0.00273218 0.0 
0.824301 -0.00183195 0.0 
-0.00510035 0.0019759 0.0 
0.891883 -0.00480607 0.0 
-0.0338959 -0.00190382 0.0 
0.939999 0.000794075 0.0 
0.647377 -0.00271568 0.0 
0.81157 -0.00177499 0.0 
0.00816184 -0.0026865 0.0 
-0.0368266 -0.00794536 0.0 
0.996555 -0.0321529 0.0 
-0.048674 -0.00167495 0.0 
0.637255 -0.00290314 0.0 
-0.0502745 -0.00164253 0.0 
0 0 0.0 
-0.0377446 -0.00236066 0.0 
-0.0499181 -0.00846899 0.0 
0.931752 0.000676182 0.0 
0 0 0.0 
1.00446 -0.0289543 0.0 
-0.0509767 -0.00141386 0.0 
0.674631 -0.00284561 0.0 
-0.00719336 -0.00140149 0.0 
-0.0459896 -0.00144861 0.0 
0.00454564 -0.00143264 0.0 
0.892018 0.000788702 0.0 
0.886831 0.00105774 0.0 
0.00453023 -0.00237591 0.0 
0.827117 -0.000995983 0.0 
0.656211 -0.00251812 0.0 
0.877225 0.000709706 0.0 
0 0 0.0 
-0.00646315 -0.0047854 0.0 
0.993911 -0.00144314 0.0 
0.746128 0.00171037 0.0 
-0.00593254 -0.000297261 0.0 
0.0284533 -0.0049929 0.0 
-0.00608731 -0.0014293 0.0 
-0.00376947 -0.000669423 0.0 
0.653144 -0.00016566 0.0 
0.853409 0.00206151 0.0 
0.00331287 0.00152388 0.0 
-0.0518055 -0.00148916 0.0 
0.00402367 -0.00568864 0.0 
0 0 0.0 
-0.00263659 0.000678007 0.0 
0.683104 -0.00330849 0.0 
0.747813 -0.00895109 0.0 
0.886978 0.000653106 0.0 
0.821265 -0.00230504 0.0 
-0.00736455 -0.00359595 0.0 
0.613317 -0.00422462 0.0 
-0.0421475 -0.00716275 0.0 
-0.0230432 -0.00373335 0.0 
0 0 0.0 
0.7979 -0.000866585 0.0 
-0.0354757 0.000998072 0.0 
0.0262584 -0.00744871 0.0 
-0.0476004 -0.00189577 0.0 
0.668474 -0.00300199 0.0 
0 0 0.0 
-0.0520244 -0.00206143 0.0 
0 0 0.0 
-0.0412263 -0.00226376 0.0 
0 0 0.0 
0.950091 -0.0015275 0.0 
-0.0297714 -0.00539905 0.0 
-0.0365925 -0.00655883 0.0 
1.29645e-305 2.13726e-306 0.0 
-0.0156049 -0.00640567 0.0 
0 0 0.0 
0.00509604 -0.00537515 0.0 
0.895788 0.000813165 0.0 
0 0 0.0 
0.807363 -0.000766976 0.0 
0.980679 0.000399718 0.0 
-0.00814971 0.001337 0.0 
-0.00562005 -0.00523545 0.0 
-0.0354042 -0.00159148 0.0 
0 0 0.0 
0 0 0.0 
0.0125054 -0.00193891 0.0 
-0.00480266 -0.00082488 0.0 
0.0022714 0.000632909 0.0 
0 0 0.0 
0 0 0.0 
0.76631 -0.000754389 0.0 
-0.00689229 -0.00585082 0.0 
0.90025 0.000699035 0.0 
0.910607 -0.0272341 0.0 
-0.0218236 -0.00397849 0.0 
-0.0481633 -0.00237914 0.0 
0.932297 -0.00162399 0.0 
0.932683 -0.00149434 0.0 
0.996479 0.000117244 0.0 
0.972057 -0.00118321 0.0 
0.659728 -0.00302857 0.0 
0.0155924 -0.00313775 0.0 
0.937313 -0.00197695 0.0 
-0.0352032 -0.00303935 0.0 
-0.0449385 -0.0087694 0.0 
0.772957 -0.00207424 0.0 
-0.011843 -0.0053757 0.0 
0.00841155 -0.00145632 0.0 
0 0 0.0 
0.885635 0.000714067 0.0 
-0.044558 -0.00821627 0.0 
-0.000849541 0.000377875 0.0 
0.907393 0.00100394 0.0 
-0.00754792 -0.00133506 0.0 
-0.00415622 0.00247404 0.0 
-0.0450511 -0.00926917 0.0 
0.849504 -0.00249334 0.0 
0.00906039 -0.0054176 0.0 
0.94719 -0.00131272 0.0 
-0.00637769 4.74961e-05 0.0 
0.977576 -0.00438508 0.0 
-0.0326224 -0.00101579 0.0 
0.818872 -0.00265763 0.0 
1.0128 -0.035422 0.0 
-0.0129681 0.00308486 0.0 
-0.0340741 -0.00800078 0.0 
0.885779 0.000875853 0.0 
0.00424995 -0.00581951 0.0 
0.92506 -0.00138186 0.0 
-0.0506612 -0.000978411 0.0 
-0.000737835 -0.00429675 0.0 
-0.00258917 -0.00268354 0.0 
0 0 0.0 
-0.0174633 -0.00309431 0.0 
0.891675 0.00106609 0.0 
0.00389664 -0.00420324 0.0 
0 0 0.0 
-0.00456037 -0.00208355 0.0 
-0.012308 -0.00611355 0.0 
-0.0378976 -0.000996841 0.0 
-0.0425061 -0.00171834 0.0 
0.914893 0.000689133 0.0 
0.007176 -0.00550408 0.0 
-0.0105737 -0.00181905 0.0 
1.00822 -0.0392358 0.0 
0.891332 0.000978133 0.0 
0.898507 0.00124367 0.0 
0.005617 -0.00125799 0.0 
-0.00466787 -0.000809492 0.0 
0.925686 0.00060202 0.0 
0.879337 -0.00158147 0.0 
-0.019103 -0.00694774 0.0 
-0.0045917 -0.000819079 0.0 
-0.00427547 -0.00223725 0.0 
-0.0103376 0.000510103 0.0 
0.897639 0.00117288 0.0 
0.00251258 -0.0056235 0.0 
-0.0406042 -0.00055237 0.0 
-0.00252155 -0.00550385 0.0 
0.833549 0.00215653 0.0 
-0.00715885 -0.00130086 0.0 
0.90801 -0.0016262 0.0 
0.908574 0.000626194 0.0 
0.00652237 -0.00282756 0.0 
0.987434 -0.0146925 0.0 
-0.0226491 -0.00437418 0.0 
0.957949 -0.00123642 0.0 
-0.0131439 -0.00254325 0.0 
0.798704 -0.00170471 0.0 
1.01943 -0.0425915 0.0 
-0.0183972 -0.00726829 0.0 
0.00702905 0.00195578 0.0 
0.00250789 0.00199057 0.0 
0.885049 0.00135415 0.0 
-0.00367882 -0.000624888 0.0 
0.898783 0.00100435 0.0 
-0.0501211 -0.00127205 0.0 
0.851532 0.00191951 0.0 
0.889344 0.00145665 0.0 
-0.00324333 -0.00639454 0.0 
0.911128 0.00129144 0.0 
0.806585 0.00242261 0.0 
-0.00575165 -0.00624647 0.0 
0.823928 0.00224897 0.0 
0.888282 0.00159095 0.0 
0.87995 0.00172585 0.0 
-0.00607486 -0.00118461 0.0 
-0.0495803 -0.00065241 0.0 
-0.0102263 -0.00686554 0.0 
-0.000505822 -0.00140872 0.0 
-0.0122138 -0.00691536 0.0 
-0.0142632 0.0021559 0.0 
0.926061 -0.00367985 0.0 
0.915489 -0.0031892 0.0 
0.923242 -0.00207311 0.0 
-0.0244718 -0.00719128 0.0 
0.909583 0.000826741 0.0 
-0.029164 -0.00734535 0.0 
0.955235 0.000638704 0.0 
0.903676 -0.00351356 0.0 
0.938592 0.000735887 0.0 
0.0113441 -0.00510575 0.0 
-0.0400361 -0.00728972 0.0 
0 0 0.0 
0.941458 0.00102872 0.0 
-0.0347112 -0.00765268 0.0 
0.899026 -0.00244628 0.0 
0 0 0.0 
-0.0153109 -0.00681526 0.0 
0.93461 -0.00191543 0.0 
1.03633 -0.0508496 0.0 
-0.0290287 -0.00341159 0.0 
-0.00298017 -0.0066284 0.0 
0.941239 0.000937101 0.0 
0.995352 0.000236537 0.0 
-0.00721246 -0.00657702 0.0 
0.957346 -0.00225103 0.0 
0.993081 0.000223567 0.0 
-0.0163462 0.000951065 0.0 
0.739696 -0.00235758 0.0 
-0.033305 -0.00869976 0.0 
-0.00258736 -0.00493423 0.0 
0.774845 1.28859e-05 0.0 
0.873395 -0.00380319 0.0 
0.859536 -0.001931 0.0 
0.962624 -0.00151103 0.0 
0.972124 0.000606803 0.0 
-0.0106433 0.00204432 0.0 
0.840174 -0.00181299 0.0 
-0.00734824 -0.00647811 0.0 
0.00526318 -0.00571489 0.0 
-0.00595392 -0.00115264 0.0 
0.936713 -0.00219379 0.0 
0.00120117 -0.00125351 0.0 
-0.00461318 -0.000803613 0.0 
0.878646 -0.0265397 0.0 
-0.0106084 -0.00458874 0.0 
0.0029833 -0.000793183 0.0 
-0.0085959 -0.00168917 0.0 
1.01236 -0.0382126 0.0 
-0.00464969 -0.000839398 0.0 
0.589106 0.00064643 0.0 
0.624707 -0.0040731 0.0 
0.988973 0.000315475 0.0 
-0.00359005 -0.000624581 0.0 
0.00106573 -0.00561173 0.0 
-0.00214912 -0.0057871 0.0 
0.977743 -0.00166776 0.0 
0.942181 -0.00247245 0.0 
0.704409 -0.00220864 0.0 
0.881105 -0.00188524 0.0 
0.948627 0.00372347 0.0 
0.000628777 -0.00311151 0.0 
-0.0485044 -0.00400709 0.0 
0.991298 -0.00119259 0.0 
-0.0114415 -0.0020577 0.0 
0.000247608 -0.00530994 0.0 
0.993088 -0.0013167 0.0 
0.972314 -0.0158661 0.0 
0.964175 0.000652813 0.0 
-0.00989341 -0.00688659 0.0 
-0.0100568 0.00311534 0.0 
0.913761 0.000776748 0.0 
0.981628 -0.0109324 0.0 
0.877706 0.00186965 0.0 
1.0137 -0.0415405 0.0 
-0.00723891 -0.00671268 0.0 
1.01842 0.0169303 0.0 
0.983706 0.00934794 0.0 
-0.0197502 -0.000115465 0.0 
1.00445 2.06095e-05 0.0 
0.973478 0.00289013 0.0 
0.987605 -0.00141949 0.0 
0.91946 0.000534757 0.0 
-0.0350472 -0.00641622 0.0 
0.974839 -0.00620284 0.0 
-0.000641604 -0.00619242 0.0 
0.9743 0.000364897 0.0 
0.983159 -0.00732778 0.0 
0.936555 -0.022961 0.0 
-0.019807 -0.00667111 0.0 
0.953198 0.000523676 0.0 
0.932088 0.0273395 0.0 
0.0330434 -0.0035961 0.0 
-0.0260476 -0.00800297 0.0 
-0.00578968 -0.00104485 0.0 
0.911401 -0.0189997 0.0 
-0.0457192 -0.00877201 0.0 
-0.048523 -0.00132189 0.0 
-0.0522879 -0.00280811 0.0 
1.00421 0.000171628 0.0 
0.860699 -0.00159812 0.0 
0 0 0.0 
0.843735 0.00110234 0.0 
0.981593 0.00202382 0.0 
0.991249 0.00929601 0.0 
-0.00108775 -0.00608688 0.0 
0.651345 -0.00505029 0.0 
-0.00817767 -0.00549206 0.0 
0.832434 -0.0018087 0.0 
0.919266 -0.0150164 0.0 
0.927158 -0.017179 0.0 
-0.0113217 -0.00669794 0.0 
1.01019 -0.0293922 0.0 
0.927588 -0.0199105 0.0 
-0.0409037 -0.00876216 0.0 
-0.00734036 -0.00626491 0.0 
0.932065 -0.0144854 0.0 
0.0163954 -0.00467769 0.0 
0.892391 -0.0249119 0.0 
0.02815 -0.00379831 0.0 
0.898805 0.00180231 0.0 
0.97168 -0.0135273 0.0 
0.907105 -0.0240229 0.0 
0.809333 -0.00163352 0.0 
-0.00249662 -0.00392326 0.0 
0.979324 -0.0132856 0.0 
0.919031 -0.0219283 0.0 
-0.00985067 -0.00178184 0.0 
0.00236822 -0.00540569 0.0 
-0.0112353 -0.00667044 0.0 
-0.0124818 -0.00641427 0.0 
0.999647 -0.0118574 0.0 
-0.0404726 -0.0080214 0.0 
0 0 0.0 
-0.00566638 -0.00585822 0.0 
0 0 0.0 
0.00963865 -0.00489801 0.0 
-0.0160441 -0.00290617 0.0 
0.840082 -0.00216063 0.0 
0.95168 -0.0124764 0.0 
-0.00815121 0.00253987 0.0 
0.978807 0.000424373 0.0 
-0.00533348 -0.000947293 0.0 
0.927944 -0.00269702 0.0 
0.975051 0.000517923 0.0 
-0.0511494 -0.00347289 0.0 
-0.0077923 -0.00156149 0.0 
0.955571 0.00067621 0.0 
0 0 0.0 
-0.0281853 -0.000741304 0.0 
0.961973 -0.0119173 0.0 
0.998553 0.000100542 0.0 
0.673655 0.00149921 0.0 
0.699268 0.00185468 0.0 
0 0 0.0 
-0.0199017 -0.0075787 0.0 
0.766347 -0.0021911 0.0 
-0.00842451 -0.00146244 0.0 
0.936375 -0.0117289 0.0 
-0.00176479 -0.0062292 0.0 
0.807462 -0.00195662 0.0 
-0.00232193 -0.00484179 0.0 
-0.0185837 -0.00364915 0.0 
0.951732 0.000750256 0.0 
0.00916895 -0.00360132 0.0 
0.629363 -0.00465039 0.0 
-0.013497 -0.00262594 0.0 
0.941433 0.000497344 0.0 
0.00188234 -0.00595865 0.0 
-0.0131193 -0.000527045 0.0 
0.00399776 0.000805029 0.0 
0.0100133 -0.00309603 0.0 
0.835986 0.00238339 0.0 
0.969184 -0.00244033 0.0 
0.93997 -0.0164684 0.0 
0 0 0.0 
0.880326 -0.00323278 0.0 
-0.0017593 -0.00603063 0.0 
-0.0242556 -0.0035129 0.0 
1.01765 -0.0397314 0.0 
0.900658 -0.00368694 0.0 
0.815577 -0.000904474 0.0 
0.973942 -0.0194078 0.0 
0.825216 -0.00291312 0.0 
-0.0407525 -0.00832024 0.0 
0.984128 0.000235857 0.0 
-0.0397949 -0.00905909 0.0 
0.897706 -0.0281557 0.0 
0.0105519 -0.00394358 0.0 
0.616337 -0.004744 0.0 
0.925134 -0.0256282 0.0 
-0.00303538 0.0011402 0.0 
-0.0178251 -0.00555082 0.0 
0.979362 -0.0150585 0.0 
-0.00693096 0.00314784 0.0 
0.793357 -0.00173617 0.0 
0.865707 -0.00341974 0.0 
-0.0213455 -0.00151934 0.0 
0.998449 -0.0038124 0.0 
-0.00450344 -0.00082981 0.0 
0.936671 0.00119679 0.0 
0.909398 -0.00170762 0.0 
0.85736 -0.00164101 0.0 
0.987126 0.000369565 0.0 
-0.00343437 -0.00620959 0.0 
0.817083 0.00124793 0.0 
1.0058 -0.0172102 0.0 
-0.0252038 -0.00758972 0.0 
-0.0402257 -0.00911071 0.0 
0.957927 0.00113348 0.0 
-0.0164586 -0.00410276 0.0 
0.98263 -0.0185175 0.0 
0.856228 -0.00210637 0.0 
0.990091 0.000365347 0.0 
0.961659 -0.0140946 0.0 
0.0228573 -0.00388594 0.0 
0.76415 -0.000285089 0.0 
-0.0443305 -0.00943233 0.0 
0.00577823 -0.00506918 0.0 
1.00444 -0.0138974 0.0 
-0.0189809 -0.00351349 0.0 
0.913372 -0.0313304 0.0 
0.991587 -0.00242819 0.0 
-0.00135713 0.00335771 0.0 
-0.0381461 -0.00477102 0.0 
0.999404 -0.0232698 0.0 
1.00621 3.08903e-05 0.0 
0.012637 -0.00506936 0.0 
-0.00959358 -0.00288392 0.0 
0.999375 -0.0170863 0.0 
0.874976 0.000583693 0.0 
0.655843 0.00141005 0.0 
0.00430388 -0.00560397 0.0 
0.890082 -0.0094384 0.0 
0.00158302 -0.00192713 0.0 
0.00375761 -0.00538431 0.0 
0.994351 0.000104795 0.0 
0.921241 0.00110098 0.0 
1.00813 -0.0230966 0.0 
-0.0253748 -0.00703892 0.0 
-0.000929073 -0.0058027 0.0 
-0.0097157 -0.00210668 0.0 
1.00222 -0.0145827 0.0 
0.963605 0.00403402 0.0 
-0.0512504 -0.00112022 0.0 
0.945791 -0.00372919 0.0 
0.851993 0.00223047 0.0 
-0.0157714 -0.00261743 0.0 
-0.00227783 -0.00567404 0.0 
0.953706 0.0015138 0.0 
0.962393 -0.0166495 0.0 
0.902432 0.000583792 0.0 
1.00849 -0.010655 0.0 
-0.0157008 -0.00737049 0.0 
-0.0181102 -0.00749117 0.0 
0.0173656 -0.00454646 0.0 
0.947094 -0.0145163 0.0 
0.895191 -0.00183841 0.0 
0.941593 0.000865425 0.0 
1.00495 -0.02423 0.0 
-0.0119442 -0.00218556 0.0 
0 0 0.0 
-0.0333649 -0.00628068 0.0 
0.977829 0.000760107 0.0 
0.933525 -0.00442843 0.0 
0.970514 -0.00113529 0.0 
0.0123741 -0.00451861 0.0 
0.646728 -0.00537457 0.0 
1.00788 -0.0312074 0.0 
-0.0255403 -0.00547708 0.0 
-0.0415781 -0.00792014 0.0 
-0.0427541 -0.00805289 0.0 
-0.0280902 -0.00517484 0.0 
0.899085 -0.00137585 0.0 
0.0160609 0.000897517 0.0 
0.0149682 -0.00467458 0.0 
1.00268 9.65963e-05 0.0 
0.600511 9.26448e-05 0.0 
-0.00254996 -0.00587182 0.0 
0.960778 0.000397263 0.0 
1.00035 0.000150754 0.0 
0 0 0.0 
-0.00210952 -7.92061e-05 0.0 
0.000130084 -0.000399154 0.0 
0.00747968 -0.00172451 0.0 
0 0 0.0 
-0.0341667 0.00136636 0.0 
0.00780571 -0.00461073 0.0 
0 0 0.0 
0.940455 -0.0194178 0.0 
-0.0329164 -0.00233789 0.0 
1.00004 0.000178602 0.0 
0.630727 -0.00529992 0.0 
-0.0429147 -0.00784501 0.0 
0.91959 0.00135275 0.0 
0.983184 0.000262692 0.0 
0.974088 -0.0082572 0.0 
0.9946 -0.0019915 0.0 
0.768993 -4.12155e-05 0.0 
0.0107259 -0.00489385 0.0 
0.598114 0.000482456 0.0 
0.00148219 0.00107996 0.0 
1.00042 0.000116075 0.0 
0.918567 0.00177212 0.0 
0.0257086 -0.00412951 0.0 
0.997197 -0.00719948 0.0 
0.0044967 -0.00522968 0.0 
-0.00289842 -0.00525491 0.0 
0.630827 -0.00572668 0.0 
0.988721 -0.00538602 0.0 
0.950226 -0.00204707 0.0 
1.00043 -0.00202184 0.0 
-0.00214892 -0.00094041 0.0 
0.990293 0.00441441 0.0 
0.995514 0.00283489 0.0 
-0.0431192 -0.00826427 0.0 
-0.0355403 -0.00741145 0.0 
0.915665 0.000738092 0.0 
0.985318 0.000194219 0.0 
0.985367 -0.00340032 0.0 
0.0187293 -0.00467945 0.0 
0.996818 0.000196844 0.0 
0.997412 0.00119073 0.0 
0.968843 0.000553727 0.0 
0.986059 -0.00878498 0.0 
-0.0153363 -0.00291988 0.0 
0.794 -0.00202908 0.0 
0.98919 -0.00161226 0.0 
-0.0123121 -0.0014304 0.0 
-0.0245457 -0.00806317 0.0 
0.00937881 -0.00514881 0.0 
0.997132 -0.00153384 0.0 
-0.0243618 -0.0045982 0.0 
0.747467 -0.00223307 0.0 
-0.00498723 0.00299354 0.0 
0.996854 -0.00121963 0.0 
0.877755 0.00208034 0.0 
0.999336 -0.0013362 0.0 
0.00159093 -0.00571484 0.0 
0 0 0.0 
1.00183 -0.00489902 0.0 
0.973822 0.0227483 0.0 
-0.0040095 -0.00639323 0.0 
0.974932 -0.00333444 0.0 
0.982948 -0.00303449 0.0 
-0.00935938 -0.00602753 0.0 
0.977631 0.00684876 0.0 
-0.00119021 0.00172004 0.0 
0.0141892 -0.0050498 0.0 
0.00404258 -0.00370793 0.0 
0.01065 -0.00499087 0.0 
0.00406465 -0.0032976 0.0 
0.963775 0.00063123 0.0 
-0.0120834 0.0026674 0.0 
1.00262 -0.0378391 0.0 
-0.00679157 -0.00126239 0.0 
1.00345 -0.00350085 0.0 
0.8111 -0.00302282 0.0 
0.972173 0.000451 0.0 
0.00311121 -0.00470408 0.0 
0.78098 -0.00234752 0.0 
0.0167891 -0.00378935 0.0 
0.958556 -0.00121832 0.0 
0 0 0.0 
-0.00551387 -0.00104619 0.0 
-0.016503 -0.00656679 0.0 
0.871821 -0.00239346 0.0 
-0.00720676 -0.00135941 0.0 
-0.00912314 -0.0015406 0.0 
-0.0190193 0.00152114 0.0 
0 0 0.0 
-0.00429205 -0.000806618 0.0 
-0.0415106 8.75758e-05 0.0 
-0.0137748 -0.00260211 0.0 
0.993986 -0.00318843 0.0 
0 0 0.0 
-0.0314596 -0.00475929 0.0 
0.0083762 0.00167867 0.0 
-0.0059182 -0.00111292 0.0 
-0.00461844 -0.000858949 0.0 
-0.0373702 -0.000414064 0.0 
0.890254 -0.00225558 0.0 
-0.0120478 0.00156613 0.0 
0.984036 0.000604259 0.0 
0.924489 -0.00403111 0.0 
-0.0105126 -0.00197046 0.0 
-0.0308486 -0.00842464 0.0 
0 0 0.0 
-0.00732246 -0.00141634 0.0 
0.953253 -0.00297219 0.0 
0.908134 0.00159575 0.0 
-0.0316718 -0.00356994 0.0 
0.786181 -0.0017291 0.0 
0.675497 -0.0025197 0.0 
0.00665277 0.000489083 0.0 
0.725855 -0.00434997 0.0 
0.0182705 0.000358833 0.0 
-0.0450476 -0.00212869 0.0 
-0.0356677 -0.00326764 0.0 
-0.0166481 -0.00289491 0.0 
0.992216 0.00633733 0.0 
0.0102971 -0.00709784 0.0 
0.91429 0.000870048 0.0 
0.86047 0.00242706 0.0 
0.966799 -0.00127493 0.0 
-0.0515398 -0.00172559 0.0 
0.808846 -0.00327847 0.0 
0.00486091 -0.00700741 0.0 
0.748734 -0.00362902 0.0 
1.00204 0.0012512 0.0 
0.656347 -0.0060465 0.0 
-0.0339136 -0.00589987 0.0 
0.963243 -0.00886648 0.0 
0.646217 0.00069654 0.0 
0.813284 -0.00453652 0.0 
0.973399 -0.00214891 0.0 
0.819011 -0.00524735 0.0 
-0.0448775 3.92257e-05 0.0 
0.0118509 -0.00107541 0.0 
0.785865 -0.00434766 0.0 
0.770718 -0.00400524 0.0 
-0.0458743 -0.000353952 0.0 
0.678118 -0.00553163 0.0 
0.871734 -0.0145565 0.0 
0.840601 -0.00379311 0.0 
0.945949 0.000777655 0.0 
0.794387 0.00218881 0.0 
0.686357 -0.00298634 0.0 
0.975788 0.000328506 0.0 
0.00929143 0.000920277 0.0 
0.922607 0.00119302 0.0 
0.986381 0.000331238 0.0 
-0.0175381 -0.0031593 0.0 
0.948453 -0.010541 0.0 
0.967023 0.00138324 0.0 
-0.0511738 -0.0049106 0.0 
1.00034 -0.0030933 0.0 
0.95882 -0.00556318 0.0 
0.744452 -0.00317414 0.0 
0.937911 0.00148877 0.0 
-0.0479168 -0.0087591 0.0 
-0.0435804 -0.00785073 0.0 
0.732127 -0.00600948 0.0 
-4.52656e-05 -0.00137424 0.0 
0.839989 -0.00486258 0.0 
0.947732 0.00131542 0.0 
-0.0437004 -0.00317979 0.0 
-0.0456144 -0.00837026 0.0 
0 0 0.0 
1.00105 0.00344181 0.0 
0.708305 -0.00590026 0.0 
-0.0468181 -0.00656216 0.0 
1.00389 -0.00828921 0.0 
0.00479427 -0.00539509 0.0 
0.0111028 -0.00123427 0.0 
0.961714 -0.00680164 0.0 
0.960296 0.000817589 0.0 
-0.0422152 -0.00204386 0.0 
-0.0375793 0.000891062 0.0 
-0.0260673 -0.00448818 0.0 
0.0118794 -0.000412618 0.0 
-0.0120249 -0.00201303 0.0 
0.905325 -0.00787471 0.0 
0.854908 -0.00179685 0.0 
0.711517 -0.0047768 0.0 
0.976098 0.000275232 0.0 
-0.0438696 -0.00793011 0.0 
-0.0388247 -0.00692067 0.0 
-0.0499994 -0.00185563 0.0 
0.00117438 -0.0068609 0.0 
-0.051282 -0.00405336 0.0 
-0.0515882 -0.00210446 0.0 
0.994764 -0.0135898 0.0 
0.986951 0.0012287 0.0 
-0.0491635 -0.00546286 0.0 
0.972166 -0.0114726 0.0 
0.634945 -0.00395174 0.0 
0.904978 -0.00890507 0.0 
0.996581 0.000450879 0.0 
-0.0341182 -0.00194073 0.0 
-0.000545849 -0.000555137 0.0 
-0.0492045 -0.00932317 0.0 
0.949329 -0.00348551 0.0 
0.608224 -0.00199022 0.0 
0.908098 0.00153819 0.0 
0.0139368 0.00144336 0.0 
0.88109 -0.0200604 0.0 
-0.00453894 -0.000804183 0.0 
0.608188 -0.000783901 0.0 
0.89987 -0.00684868 0.0 
1.00327 0.000141218 0.0 
0.904029 -0.0135639 0.0 
-0.0190211 -0.00492948 0.0 
0.982364 0.000452761 0.0 
0.801312 -0.000679971 0.0 
0.878401 -0.00713981 0.0 
0.577875 -4.26825e-06 0.0 
0.863302 0.000484467 0.0 
0 0 0.0 
-0.000744007 -0.000157444 0.0 
0.965574 -0.00174901 0.0 
0.586756 -0.00025191 0.0 
0.638382 0.000882784 0.0 
0.616814 0.000557569 0.0 
0.876149 0.00224221 0.0 
0.946102 0.00121311 0.0 
0.968049 0.000840602 0.0 
-0.0427731 1.53683e-05 0.0 
0.845836 -0.00317254 0.0 
-0.0503301 -0.00734195 0.0 
0.978577 0.00125373 0.0 
0.81527 -0.00107698 0.0 
0.962943 0.000615856 0.0 
-0.0337921 -0.00604952 0.0 
0.849408 -0.00281955 0.0 
0.872518 -0.017691 0.0 
0.616178 -0.000409965 0.0 
0.787272 -0.000387626 0.0 
0.803089 -0.000549027 0.0 
-0.0468807 -0.00170698 0.0 
-0.0372944 0.00102194 0.0 
0.74674 -0.00389761 0.0 
0.92892 0.0014125 0.0 
0.913238 -0.00224683 0.0 
0.987006 0.000214627 0.0 
0.79702 -0.00275198 0.0 
0.983209 0.000521333 0.0 
0.923498 0.000911921 0.0 
0.86332 -0.00652243 0.0 
-0.0473459 -0.000257829 0.0 
-0.0467185 -0.00225479 0.0 
0.881731 -0.00214664 0.0 
0.616204 -0.00247894 0.0 
0.0408714 -0.00760674 0.0 
0.0139162 -0.00679502 0.0 
0.745793 -0.0046035 0.0 
1.00078 0.000861508 0.0 
0 0 0.0 
0 0 0.0 
0.021982 -0.000158287 0.0 
0.938934 0.000632637 0.0 
0.843773 0.00176873 0.0 
-0.0350376 0.000522094 0.0 
0.69806 -0.00492978 0.0 
0.952717 -0.00186143 0.0 
0.962804 0.000574221 0.0 
0.928323 -0.00914224 0.0 
0.745808 -0.000282045 0.0 
-0.044124 -0.000927871 0.0 
0.793091 0.00121619 0.0 
0.884714 -0.00819563 0.0 
0.597002 -0.000411014 0.0 
0.990886 0.000191941 0.0 
0.991028 0.000463836 0.0 
0.991564 0.000819601 0.0 
-0.0459974 -0.00637295 0.0 
0.608004 -0.000392941 0.0 
0.724917 -0.00138257 0.0 
1.00184 5.43182e-05 0.0 
0.818071 0.00110731 0.0 
-0.0414789 0.00045451 0.0 
0.734758 -0.0028546 0.0 
-0.0440053 -0.00208252 0.0 
0.926613 -0.00703403 0.0 
-0.0404931 0.000665523 0.0 
-0.026807 -0.00364603 0.0 
0.883657 -0.00635255 0.0 
0.856873 -0.00305035 0.0 
0.804145 0.000223258 0.0 
1.00248 -0.00152941 0.0 
-0.0455916 -0.00791652 0.0 
-0.045647 -0.000380945 0.0 
0.823069 0.000354454 0.0 
-0.0098528 -0.00173049 0.0 