<VTKFile type="UnstructuredGrid" version="0.1" byte_order="LittleEndian">
  <UnstructuredGrid>
    <Piece NumberOfPoints="14172" NumberOfCells="27675">
      <Points>
        <DataArray type = "Float64" NumberOfComponents="3" format="ascii">
1.10069 0.962796 0.0 
1.083 0.967962 0.0 
1.08503 0.970641 0.0 
1.11668 0.97041 0.0 
1.04925 0.977722 0.0 
1.08449 0.970122 0.0 
1.08293 0.968495 0.0 
1.05947 0.969607 0.0 
1.0792 0.965588 0.0 
1.10661 0.960562 0.0 
1.04155 0.972853 0.0 
1.10103 0.967847 0.0 
1.10019 0.968188 0.0 
1.0552 0.970625 0.0 
1.15884 0.963919 0.0 
1.09819 0.960531 0.0 
1.08966 0.966429 0.0 
1.09652 0.966762 0.0 
1.09401 0.968867 0.0 
1.06279 0.962793 0.0 
1.07435 0.968995 0.0 
1.11307 0.968963 0.0 
1.11317 0.966769 0.0 
1.05953 0.973167 0.0 
1.05542 0.973963 0.0 
1.12339 0.968896 0.0 
1.08714 0.97471 0.0 
1.08937 0.962963 0.0 
1.13124 0.970874 0.0 
1.13054 0.964984 0.0 
1.0843 0.960068 0.0 
1.09819 0.971159 0.0 
1.12551 0.969956 0.0 
1.04295 0.973634 0.0 
1.04227 0.973379 0.0 
1.04926 0.970287 0.0 
1.07986 0.970561 0.0 
1.08475 0.968425 0.0 
1.08517 0.967066 0.0 
1.1095 0.96779 0.0 
1.1253 0.975367 0.0 
1.04612 0.97365 0.0 
1.11271 0.964422 0.0 
1.09061 0.970497 0.0 
1.0531 0.97592 0.0 
1.07113 0.959245 0.0 
1.06862 0.97286 0.0 
1.05472 0.969643 0.0 
1.08236 0.969565 0.0 
1.06322 0.972089 0.0 
1.08012 0.965094 0.0 
1.08591 0.970141 0.0 
1.11662 0.965822 0.0 
1.14411 0.9614 0.0 
1.09065 0.978161 0.0 
1.07513 0.969611 0.0 
1.04701 0.967109 0.0 
1.04438 0.973623 0.0 
1.07594 0.972027 0.0 
1.05246 0.967185 0.0 
1.05892 0.965088 0.0 
1.0836 0.976868 0.0 
1.09023 0.978631 0.0 
1.05603 0.974121 0.0 
1.04848 0.969828 0.0 
1.07234 0.974945 0.0 
1.07796 0.96761 0.0 
1.06138 0.971573 0.0 
1.05206 0.976536 0.0 
1.08018 0.966026 0.0 
1.05938 0.974465 0.0 
1.09249 0.972801 0.0 
1.056 0.970946 0.0 
1.07341 0.958659 0.0 
1.09303 0.971966 0.0 
1.05866 0.976461 0.0 
1.08827 0.967353 0.0 
1.08977 0.971438 0.0 
1.07785 0.958143 0.0 
1.06095 0.966325 0.0 
1.0539 0.97512 0.0 
1.05723 0.963 0.0 
1.09433 0.975204 0.0 
1.06095 0.975593 0.0 
1.09846 0.9696 0.0 
1.09105 0.978783 0.0 
1.08772 0.964941 0.0 
1.04614 0.975052 0.0 
1.06245 0.973183 0.0 
1.05866 0.963275 0.0 
1.06115 0.976309 0.0 
1.05144 0.974688 0.0 
1.09228 0.976996 0.0 
1.0561 0.973355 0.0 
1.05916 0.976425 0.0 
1.07286 0.966547 0.0 
1.06149 0.975693 0.0 
1.06174 0.973462 0.0 
1.08019 0.961101 0.0 
1.05094 0.973923 0.0 
1.05369 0.968117 0.0 
1.10347 0.964974 0.0 
1.07738 0.973713 0.0 
1.06571 0.97059 0.0 
1.11569 0.97674 0.0 
1.06256 0.975604 0.0 
1.08686 0.963616 0.0 
1.07961 0.977036 0.0 
1.05498 0.965683 0.0 
1.0554 0.972788 0.0 
1.05507 0.967866 0.0 
1.05467 0.96497 0.0 
1.08062 0.969885 0.0 
1.05024 0.96742 0.0 
1.08405 0.963673 0.0 
1.05904 0.975779 0.0 
1.09119 0.973115 0.0 
1.05664 0.975232 0.0 
1.10399 0.963092 0.0 
1.06713 0.975567 0.0 
1.05086 0.975358 0.0 
1.07623 0.973586 0.0 
1.07461 0.964896 0.0 
1.08423 0.972465 0.0 
1.11432 0.969889 0.0 
1.041 0.970626 0.0 
1.07464 0.957212 0.0 
1.06994 0.965592 0.0 
1.09723 0.970283 0.0 
1.06964 0.966914 0.0 
1.06127 0.972309 0.0 
1.05344 0.964841 0.0 
1.08108 0.969116 0.0 
1.06101 0.974436 0.0 
1.08312 0.967195 0.0 
1.05589 0.97491 0.0 
1.05629 0.965081 0.0 
1.05823 0.969816 0.0 
1.05597 0.975542 0.0 
1.06425 0.973183 0.0 
1.0961 0.979228 0.0 
1.09469 0.974389 0.0 
1.11264 0.973527 0.0 
1.08709 0.967802 0.0 
1.06273 0.97494 0.0 
1.04562 0.974333 0.0 
1.05453 0.97496 0.0 
1.08357 0.977545 0.0 
1.05566 0.976096 0.0 
1.05877 0.965853 0.0 
1.08397 0.973323 0.0 
1.09036 0.969064 0.0 
1.10514 0.971583 0.0 
1.05339 0.973202 0.0 
1.06948 0.975725 0.0 
1.09139 0.977221 0.0 
1.05935 0.972505 0.0 
1.0523 0.975936 0.0 
1.05264 0.964235 0.0 
1.06205 0.975481 0.0 
1.06531 0.96712 0.0 
1.06835 0.961667 0.0 
1.06234 0.973895 0.0 
1.05128 0.976074 0.0 
1.06793 0.967016 0.0 
1.08143 0.961502 0.0 
1.08297 0.976762 0.0 
1.06361 0.975539 0.0 
1.05524 0.966435 0.0 
1.06066 0.974994 0.0 
1.04489 0.973133 0.0 
1.05179 0.975348 0.0 
1.05613 0.976689 0.0 
1.05025 0.97348 0.0 
1.06913 0.974202 0.0 
1.08245 0.970754 0.0 
1.06104 0.973736 0.0 
1.11521 0.962606 0.0 
1.07219 0.974192 0.0 
1.06654 0.970163 0.0 
1.09449 0.978744 0.0 
1.08469 0.967637 0.0 
1.06779 0.975598 0.0 
1.05939 0.971715 0.0 
1.08393 0.96958 0.0 
1.08619 0.968958 0.0 
1.0786 0.970872 0.0 
1.09504 0.977416 0.0 
1.08088 0.972104 0.0 
1.0873 0.976768 0.0 
1.10457 0.964051 0.0 
1.07439 0.972977 0.0 
1.07658 0.974313 0.0 
1.06822 0.975083 0.0 
1.09787 0.967951 0.0 
1.06034 0.973322 0.0 
1.09141 0.960919 0.0 
1.05078 0.97461 0.0 
1.07915 0.966661 0.0 
1.07187 0.973557 0.0 
1.05528 0.974595 0.0 
1.06215 0.976268 0.0 
1.07296 0.961241 0.0 
1.06306 0.974309 0.0 
1.08382 0.970753 0.0 
1.06694 0.971424 0.0 
1.09805 0.965802 0.0 
1.0676 0.974946 0.0 
1.04933 0.971673 0.0 
1.09338 0.976888 0.0 
1.05581 0.971548 0.0 
1.05501 0.963609 0.0 
1.08125 0.967727 0.0 
1.13007 0.973374 0.0 
1.09057 0.976067 0.0 
1.07843 0.975308 0.0 
1.0929 0.978615 0.0 
1.08142 0.972997 0.0 
1.07854 0.97586 0.0 
1.06298 0.970793 0.0 
1.06038 0.970155 0.0 
1.04463 0.974333 0.0 
1.047 0.978167 0.0 
1.09686 0.979181 0.0 
1.09417 0.977277 0.0 
1.06329 0.972941 0.0 
1.07724 0.9657 0.0 
1.07018 0.973262 0.0 
1.0979 0.969017 0.0 
1.05615 0.972123 0.0 
1.09944 0.959813 0.0 
1.05477 0.967164 0.0 
1.09904 0.980465 0.0 
1.05542 0.976766 0.0 
1.04463 0.97705 0.0 
1.04289 0.967921 0.0 
1.04506 0.975753 0.0 
1.0724 0.967943 0.0 
1.06221 0.974636 0.0 
1.07647 0.972695 0.0 
1.06865 0.96374 0.0 
1.09311 0.967639 0.0 
1.06565 0.976202 0.0 
1.06004 0.972171 0.0 
1.07162 0.972923 0.0 
1.05556 0.969925 0.0 
1.09757 0.98013 0.0 
1.07098 0.974769 0.0 
1.07302 0.97453 0.0 
1.09208 0.969875 0.0 
1.10983 0.964034 0.0 
1.12068 0.965628 0.0 
1.07407 0.970938 0.0 
1.05578 0.962887 0.0 
1.12082 0.967385 0.0 
1.09213 0.97767 0.0 
1.1162 0.969474 0.0 
1.04353 0.976101 0.0 
1.06856 0.968095 0.0 
1.09807 0.979611 0.0 
1.04999 0.968787 0.0 
1.05009 0.968057 0.0 
1.08475 0.971428 0.0 
1.07589 0.960963 0.0 
1.05716 0.972028 0.0 
1.04924 0.975697 0.0 
1.10348 0.963607 0.0 
1.05856 0.967299 0.0 
1.05377 0.976302 0.0 
1.07465 0.972175 0.0 
1.0519 0.970246 0.0 
1.07277 0.975542 0.0 
1.08479 0.975331 0.0 
1.04872 0.971047 0.0 
1.07564 0.974321 0.0 
1.0599 0.976377 0.0 
1.11319 0.981975 0.0 
1.07289 0.971141 0.0 
1.08455 0.962318 0.0 
1.04815 0.971808 0.0 
1.07088 0.972904 0.0 
1.06546 0.968368 0.0 
1.10029 0.973382 0.0 
1.04684 0.976169 0.0 
1.05118 0.968292 0.0 
1.09592 0.966201 0.0 
1.06091 0.946505 0.0 
1.06031 0.974249 0.0 
1.05993 0.975058 0.0 
1.08672 0.976065 0.0 
1.08679 0.972299 0.0 
1.06253 0.971739 0.0 
1.08586 0.974834 0.0 
1.05961 0.975753 0.0 
1.07064 0.976312 0.0 
1.08664 0.975333 0.0 
1.07114 0.976335 0.0 
1.06589 0.972373 0.0 
1.07046 0.9679 0.0 
1.07214 0.971677 0.0 
1.07017 0.970054 0.0 
1.10591 0.964596 0.0 
1.06557 0.969977 0.0 
1.05698 0.969488 0.0 
1.06065 0.976334 0.0 
1.08823 0.97339 0.0 
1.04313 0.97302 0.0 
1.07076 0.975602 0.0 
1.07974 0.976338 0.0 
1.06577 0.973106 0.0 
1.06966 0.968347 0.0 
1.08289 0.972916 0.0 
1.05629 0.949792 0.0 
1.0521 0.974119 0.0 
1.08725 0.969567 0.0 
1.07243 0.972447 0.0 
1.05377 0.974467 0.0 
1.08574 0.975662 0.0 
1.04717 0.964778 0.0 
1.12621 0.962343 0.0 
1.07236 0.972986 0.0 
1.07242 0.96974 0.0 
1.04851 0.97582 0.0 
1.04373 0.976827 0.0 
1.07011 0.97563 0.0 
1.06385 0.974357 0.0 
1.11019 0.97725 0.0 
1.08314 0.970158 0.0 
1.04516 0.970152 0.0 
1.06061 0.972573 0.0 
1.06614 0.965886 0.0 
1.08959 0.974611 0.0 
1.08778 0.976096 0.0 
1.09622 0.978491 0.0 
1.09542 0.976118 0.0 
1.0571 0.973193 0.0 
1.04324 0.974157 0.0 
1.0732 0.973036 0.0 
1.0437 0.971344 0.0 
1.05639 0.974663 0.0 
1.06773 0.960868 0.0 
1.09747 0.979448 0.0 
1.05966 0.966894 0.0 
1.06629 0.970971 0.0 
1.07171 0.974871 0.0 
1.09463 0.975797 0.0 
1.0588 0.974963 0.0 
1.06265 0.97625 0.0 
1.04562 0.976867 0.0 
1.07355 0.971663 0.0 
1.04341 0.972215 0.0 
1.09207 0.973555 0.0 
1.10091 0.971901 0.0 
1.08953 0.976178 0.0 
1.06005 0.965398 0.0 
1.0756 0.969062 0.0 
1.05898 0.973705 0.0 
1.08839 0.972425 0.0 
1.04581 0.97784 0.0 
1.04894 0.972945 0.0 
1.08656 0.977351 0.0 
1.07593 0.976011 0.0 
1.06017 0.971588 0.0 
1.09933 0.967477 0.0 
1.06306 0.975595 0.0 
1.07367 0.973756 0.0 
1.1244 0.962991 0.0 
1.05271 0.97526 0.0 
1.08198 0.964886 0.0 
1.07134 0.972344 0.0 
1.06278 0.949896 0.0 
1.05643 0.963635 0.0 
1.08017 0.968706 0.0 
1.07099 0.971774 0.0 
1.05106 0.965464 0.0 
1.07482 0.973824 0.0 
1.06157 0.970896 0.0 
1.09861 0.964407 0.0 
1.08498 0.973658 0.0 
1.10283 0.97067 0.0 
1.05351 0.952438 0.0 
1.09598 0.977663 0.0 
1.04982 0.972812 0.0 
1.06128 0.970392 0.0 
1.08728 0.978115 0.0 
1.06682 0.97487 0.0 
1.07533 0.972542 0.0 
1.0736 0.967357 0.0 
1.07055 0.952714 0.0 
1.06515 0.976204 0.0 
1.06652 0.968046 0.0 
1.09282 0.975345 0.0 
1.06882 0.971 0.0 
1.09183 0.968781 0.0 
1.06254 0.972457 0.0 
1.0714 0.967768 0.0 
1.06031 0.961043 0.0 
1.08219 0.963135 0.0 
1.07628 0.967504 0.0 
1.08083 0.97655 0.0 
1.07252 0.966057 0.0 
1.07509 0.971457 0.0 
1.08343 0.972075 0.0 
1.04826 0.967046 0.0 
1.0549 0.971841 0.0 
1.06276 0.967645 0.0 
1.12249 0.965066 0.0 
1.06495 0.974941 0.0 
1.04513 0.976384 0.0 
1.09543 0.967626 0.0 
1.04546 0.971647 0.0 
1.05394 0.97695 0.0 
1.08244 0.965873 0.0 
1.07696 0.969606 0.0 
1.05569 0.964345 0.0 
1.07396 0.961841 0.0 
1.10143 0.976104 0.0 
1.07905 0.967198 0.0 
1.07812 0.976304 0.0 
1.08283 0.960827 0.0 
1.07409 0.975249 0.0 
1.09057 0.973899 0.0 
1.07742 0.956938 0.0 
1.04245 0.972524 0.0 
1.11828 0.962601 0.0 
1.08803 0.97715 0.0 
1.07562 0.967038 0.0 
1.07712 0.976773 0.0 
1.07463 0.976556 0.0 
1.08547 0.972155 0.0 
1.07688 0.971292 0.0 
1.07815 0.961197 0.0 
1.08425 0.977117 0.0 
1.06833 0.969854 0.0 
1.08725 0.977478 0.0 
1.08295 0.973798 0.0 
1.08142 0.968421 0.0 
1.08597 0.974076 0.0 
1.09161 0.96429 0.0 
1.06567 0.975186 0.0 
1.07409 0.97594 0.0 
1.0711 0.963441 0.0 
1.07497 0.962492 0.0 
1.06903 0.975527 0.0 
1.10345 0.960992 0.0 
1.05661 0.972691 0.0 
1.09498 0.973538 0.0 
[...]
<PointData>
  <DataArray type = "Float64" Name="Vitesse" NumberOfComponents="3" format="ascii">
1.04481 -0.00461912 0.0 
0.860729 -0.0143095 0.0 
0.602889 0.00647057 0.0 
0.571161 0.0229101 0.0 
0 0 0.0 
0.657339 0.00296357 0.0 
0.817359 -0.0108904 0.0 
0.961724 -0.118241 0.0 
1.0361 -0.0428708 0.0 
1.0817 -0.0033776 0.0 
0.959638 -0.21557 0.0 
0.781924 0.0132558 0.0 
0.759395 0.0136669 0.0 
0.934853 -0.139212 0.0 
0.908356 0.0298684 0.0 
1.10339 -0.0152843 0.0 
0.927543 -0.00825768 0.0 
0.873502 0.00477817 0.0 
0.726958 0.010199 0.0 
1.16484 -0.131318 0.0 
0.844578 -0.0353136 0.0 
0.677526 0.0215644 0.0 
0.823733 0.0181693 0.0 
0.558203 -0.0587193 0.0 
0.526727 -0.0726003 0.0 
0.675895 0.0240577 0.0 
0.205291 0.0142589 0.0 
1.08121 -0.0252971 0.0 
0.548372 0.0244123 0.0 
0.890595 0.0226399 0.0 
1.14458 -0.0479493 0.0 
0.518124 0.0191128 0.0 
0.605257 0.024298 0.0 
0.868637 -0.189263 0.0 
0.906371 -0.200551 0.0 
1.02767 -0.189347 0.0 
0.641413 -0.00399091 0.0 
0.811203 -0.0067937 0.0 
0.912102 -0.014663 0.0 
0.765201 0.0183045 0.0 
0.257784 0.0156622 0.0 
0.797086 -0.161311 0.0 
0.947726 0.0124339 0.0 
0.594529 0.0127422 0.0 
0.243042 -0.0368833 0.0 
1.1671 -0.0951695 0.0 
0.461483 -0.0167937 0.0 
1.01218 -0.154713 0.0 
0.724751 -0.00494663 0.0 
0.642859 -0.0538353 0.0 
1.05241 -0.0423517 0.0 
0.648022 0.00527342 0.0 
0.870497 0.0180331 0.0 
0.997104 0.0232188 0.0 
0.0161969 0.00277111 0.0 
0.778476 -0.0262721 0.0 
1.12827 -0.214095 0.0 
0.839502 -0.176956 0.0 
0.503646 -0.00295617 0.0 
1.12389 -0.18489 0.0 
1.14855 -0.150175 0.0 
0.0365421 0.00459193 0.0 
0 0 0.0 
0.486749 -0.0638573 0.0 
1.05665 -0.198418 0.0 
0.163887 0.00379694 0.0 
0.924909 -0.0331567 0.0 
0.739548 -0.0749755 0.0 
0.151261 -0.0245533 0.0 
1.00791 -0.0363986 0.0 
0.352949 -0.0333728 0.0 
0.375796 0.0178773 0.0 
0.894748 -0.127943 0.0 
1.16545 -0.086709 0.0 
0.45155 0.0176014 0.0 
0 0 0.0 
0.872979 -0.00614031 0.0 
0.507033 0.0146195 0.0 
1.16159 -0.0715084 0.0 
1.11665 -0.134046 0.0 
0.370257 -0.0548064 0.0 
1.16254 -0.159299 0.0 
0.184948 0.0148375 0.0 
0.128951 -0.00787845 0.0 
0.651767 0.0164717 0.0 
0 0 0.0 
1.0173 -0.0203504 0.0 
0.613332 -0.123921 0.0 
0.500906 -0.0398598 0.0 
1.16303 -0.152387 0.0 
0 0 0.0 
0.515457 -0.0882555 0.0 
0.0715191 0.00842772 0.0 
0.604016 -0.0815644 0.0 
0 0 0.0 
1.03164 -0.0637488 0.0 
0.104918 -0.00561327 0.0 
0.471045 -0.0388776 0.0 
1.14574 -0.0583932 0.0 
0.644925 -0.112728 0.0 
1.09355 -0.173723 0.0 
0.94923 0.00610424 0.0 
0.299126 0.00752883 0.0 
0.786074 -0.0609961 0.0 
0.159202 0.0109965 0.0 
0.109243 -0.00474754 0.0 
1.07234 -0.0289315 0.0 
0 0 0.0 
1.14527 -0.17217 0.0 
0.698114 -0.0995654 0.0 
1.09587 -0.165801 0.0 
1.15217 -0.173921 0.0 
0.705776 -0.0069092 0.0 
1.12317 -0.197314 0.0 
1.08296 -0.0368039 0.0 
0.124286 -0.00999526 0.0 
0.347664 0.0173236 0.0 
0.277034 -0.0318706 0.0 
1.02484 0.000605411 0.0 
0.0895547 -0.000191297 0.0 
0.419405 -0.0731572 0.0 
0.316897 0.00565153 0.0 
1.09086 -0.0659252 0.0 
0.417673 0.0123456 0.0 
0.609427 0.0223984 0.0 
1.07111 -0.239929 0.0 
1.16289 -0.0830651 0.0 
1.09273 -0.0849408 0.0 
0.596107 0.0171848 0.0 
1.03697 -0.0776287 0.0 
0.646923 -0.0628104 0.0 
1.15211 -0.180181 0.0 
0.776179 -0.0112457 0.0 
0.327254 -0.0254536 0.0 
0.91681 -0.019143 0.0 
0.35489 -0.0448724 0.0 
1.15125 -0.165195 0.0 
0.960566 -0.125207 0.0 
0.234764 -0.0280507 0.0 
0.472012 -0.0304607 0.0 
0.00958029 0.00175092 0.0 
0.245383 0.0168341 0.0 
0.34186 0.0192972 0.0 
0.846748 -0.00563592 0.0 
0.217556 -0.0117868 0.0 
0.726914 -0.148792 0.0 
0.381818 -0.0540495 0.0 
0 0 0.0 
0.133368 -0.0156455 0.0 
1.13608 -0.149377 0.0 
0.33029 0.0134741 0.0 
0.725726 0.00662189 0.0 
0.479608 0.0209614 0.0 
0.6867 -0.10827 0.0 
0.0673296 0.00163214 0.0 
0.056931 0.00729248 0.0 
0.656404 -0.0731089 0.0 
0.265498 -0.0428094 0.0 
1.15339 -0.183277 0.0 
0.135377 -0.00664702 0.0 
1.05956 -0.101487 0.0 
1.16537 -0.105249 0.0 
0.392897 -0.0283481 0.0 
0.272124 -0.0467564 0.0 
1.04473 -0.0864173 0.0 
1.1378 -0.053107 0.0 
0.0393633 0.00454811 0.0 
0.110713 -0.00353754 0.0 
1.13328 -0.16961 0.0 
0.238091 -0.0176416 0.0 
0.877133 -0.182575 0.0 
0.392172 -0.0656251 0.0 
0 0 0.0 
0.722213 -0.129553 0.0 
0.271099 -0.00346311 0.0 
0.604798 0.00277758 0.0 
0.440802 -0.0379224 0.0 
1.01075 0.00993777 0.0 
0.257267 0.00199968 0.0 
0.82026 -0.0616823 0.0 
0.0147644 0.00270315 0.0 
0.874554 -0.0121354 0.0 
0.0842052 0.000548582 0.0 
0.757121 -0.0877655 0.0 
0.713023 -0.00133795 0.0 
0.756575 -0.00058452 0.0 
0.616849 -0.00483024 0.0 
0.0625836 0.00775432 0.0 
0.467354 0.00689789 0.0 
0.0616282 0.00730125 0.0 
0.987421 0.00425768 0.0 
0.398474 -0.00015286 0.0 
0.233217 0.00764972 0.0 
0.154113 -0.0004376 0.0 
0.785092 0.0108774 0.0 
0.518813 -0.0500436 0.0 
1.11668 -0.0275561 0.0 
0.546049 -0.095689 0.0 
0.979011 -0.0358853 0.0 
0.34031 -0.00167148 0.0 
0.425801 -0.057693 0.0 
0 0 0.0 
1.1607 -0.0855028 0.0 
0.315891 -0.0188371 0.0 
0.597593 0.00518889 0.0 
0.671627 -0.0422879 0.0 
0.92556 0.00272035 0.0 
0.175985 -0.00178881 0.0 
0.931162 -0.172065 0.0 
0.0809112 0.00911703 0.0 
0.838039 -0.119829 0.0 
1.15859 -0.170906 0.0 
0.891119 -0.0211793 0.0 
0.386467 0.0205077 0.0 
0.116853 0.0116289 0.0 
0.132721 0.00813298 0.0 
0.0124718 0.00202894 0.0 
0.368147 0.0106129 0.0 
0.0833024 0.00639387 0.0 
0.803342 -0.0760002 0.0 
0.904649 -0.104345 0.0 
0.752494 -0.157678 0.0 
0 0 0.0 
0.0124968 0.00225245 0.0 
0.0656827 0.00784296 0.0 
0.522874 -0.0392704 0.0 
1.0432 -0.049866 0.0 
0.391628 -0.00790348 0.0 
0.701525 0.0144679 0.0 
0.76709 -0.106533 0.0 
1.11021 -0.0149901 0.0 
1.11804 -0.170573 0.0 
0 0 0.0 
0 0 0.0 
0.329041 -0.0687081 0.0 
1.11575 -0.233237 0.0 
0.539118 -0.111348 0.0 
0.948514 -0.0544667 0.0 
0.274906 -0.017545 0.0 
0.421049 0.00217907 0.0 
1.14486 -0.0995734 0.0 
0.827682 0.00386864 0.0 
0 0 0.0 
0.687567 -0.0744063 0.0 
0.424535 -0.00678839 0.0 
0.9843 -0.145208 0.0 
0 0 0.0 
0.187343 0.00231805 0.0 
0.212924 0.00401918 0.0 
0.646841 0.0119296 0.0 
0.972105 0.00908255 0.0 
0.87345 0.0196947 0.0 
0.646904 -0.0173247 0.0 
1.16063 -0.166063 0.0 
0.774067 0.0221451 0.0 
0.0408661 0.00556698 0.0 
0.638721 0.0227061 0.0 
0.535017 -0.114734 0.0 
0.974509 -0.0733298 0.0 
0.00801592 0.0014601 0.0 
1.08871 -0.194724 0.0 
1.10978 -0.196817 0.0 
0.52367 0.00963607 0.0 
1.15705 -0.0744478 0.0 
0.759486 -0.0999871 0.0 
0.41033 -0.076569 0.0 
1.00812 0.00164699 0.0 
1.09708 -0.144931 0.0 
0.144424 -0.0204875 0.0 
0.495282 -0.00497411 0.0 
1.00364 -0.170092 0.0 
0.0942148 0.00398923 0.0 
0.148941 0.0117118 0.0 
0.986784 -0.185271 0.0 
0.233367 0.0065868 0.0 
0 0 0.0 
0.00215371 -0.00052227 0.0 
0.635004 -0.0194997 0.0 
1.11476 -0.0406229 0.0 
0.937795 -0.179291 0.0 
0.433333 -0.00893662 0.0 
0.986279 -0.0895719 0.0 
0.332336 0.0191441 0.0 
0.407441 -0.0810301 0.0 
1.09946 -0.189281 0.0 
0.911153 0.00158824 0.0 
1.12288 -0.118166 0.0 
0.371445 -0.0323758 0.0 
0.239295 -0.0192965 0.0 
0.102174 0.01006 0.0 
0.428994 0.014092 0.0 
0.699426 -0.0641155 0.0 
0.192109 0.0134911 0.0 
0.119376 -0.0087432 0.0 
0 0 0.0 
0.154487 0.0124884 0.0 
0 0 0.0 
0.562915 -0.0344058 0.0 
0.969687 -0.0646795 0.0 
0.578141 -0.0167788 0.0 
0.786404 -0.0432668 0.0 
0.959245 0.00747754 0.0 
0.85152 -0.0702167 0.0 
0.998842 -0.138908 0.0 
0 0 0.0 
0.322417 0.0159468 0.0 
0.920492 -0.199739 0.0 
0.0838578 0.00251099 0.0 
0.049996 0.00480052 0.0 
0.461508 -0.0247485 0.0 
0.945034 -0.0645543 0.0 
0.373527 0.0120074 0.0 
1.12393 -0.135982 0.0 
0.586296 -0.0974891 0.0 
0.695876 0.00454857 0.0 
0.478989 -0.00866156 0.0 
0.487455 -0.073975 0.0 
0.126718 0.0109472 0.0 
1.13885 -0.208217 0.0 
0.996728 0.0168528 0.0 
0.410745 -0.00460457 0.0 
0.793001 -0.0362314 0.0 
0.412808 -0.0786855 0.0 
0.404752 -0.0862247 0.0 
0.0796972 0.00222924 0.0 
0.297577 -0.0156761 0.0 
0.118888 0.00944359 0.0 
0.66166 0.000571079 0.0 
1.06569 -0.217826 0.0 
0.622939 -0.0626762 0.0 
1.10401 -0.104381 0.0 
0.217872 0.0154601 0.0 
0.104453 0.0103614 0.0 
0.0278595 0.00415283 0.0 
0.130161 0.0123884 0.0 
0.605144 -0.0768066 0.0 
0.80808 -0.174859 0.0 
0.398492 -0.00236213 0.0 
1.02444 -0.218216 0.0 
0.385666 -0.0476688 0.0 
1.16815 -0.108697 0.0 
0.0093693 0.00157246 0.0 
1.10536 -0.139705 0.0 
0.735031 -0.0521817 0.0 
0.173503 0.00312198 0.0 
0.146976 0.013193 0.0 
0.277632 -0.0265508 0.0 
0 0 0.0 
0.325218 -0.0665644 0.0 
0.566433 -0.0122159 0.0 
0.976552 -0.210141 0.0 
0.309312 0.0173931 0.0 
0.453198 0.0202162 0.0 
0.105884 0.0108584 0.0 
1.14132 -0.142871 0.0 
0.826545 -0.0296152 0.0 
0.486684 -0.0515404 0.0 
0.414008 0.0154316 0.0 
0.123472 -0.0252705 0.0 
0.814717 -0.152515 0.0 
0.0277069 0.00380284 0.0 
0.0576632 0.00409631 0.0 
0.758312 -0.0838762 0.0 
0.814191 0.0105386 0.0 
0.106157 -0.00399219 0.0 
0.30592 0.00244712 0.0 
0.979244 0.0170062 0.0 
0.380482 -0.0603876 0.0 
1.05037 -0.0371886 0.0 
0.502175 -0.0128118 0.0 
1.13482 -0.117639 0.0 
1.16027 -0.16395 0.0 
0.819521 -0.0170157 0.0 
0.578098 -0.0197962 0.0 
1.14585 -0.192794 0.0 
0.293072 0.00448798 0.0 
0.813803 -0.0845888 0.0 
0.99285 -0.0019501 0.0 
0.297234 0.0142653 0.0 
0.555055 0.0201438 0.0 
1.12553 -0.149487 0.0 
0.0557701 0.00708363 0.0 
0.81159 -0.147867 0.0 
0.869592 -0.0941282 0.0 
0 0 0.0 
0.191077 -0.00336492 0.0 
0.445986 -0.000867417 0.0 
0.978389 -0.0537154 0.0 
1.15051 -0.096372 0.0 
0 0 0.0 
0.9973 -0.0861517 0.0 
0.171112 0.0141478 0.0 
0.698064 -0.0383063 0.0 
0.74304 0.00727296 0.0 
0.604046 -0.0518406 0.0 
0.970018 -0.0610525 0.0 
1.16588 -0.14248 0.0 
1.10566 -0.0449616 0.0 
0.94597 -0.0404936 0.0 
0.0409435 0.00457033 0.0 
1.05796 -0.0688875 0.0 
0.577526 -0.00961914 0.0 
0.460766 0.0102975 0.0 
1.12972 -0.208054 0.0 
0.822064 -0.1224 0.0 
1.05363 -0.113969 0.0 
0.898284 0.0196901 0.0 
0.194377 -0.00641281 0.0 
0.43046 -0.0888763 0.0 
0.818366 0.00701328 0.0 
0.987113 -0.202188 0.0 
0 0 0.0 
1.00169 -0.0298971 0.0 
0.762419 -0.0196937 0.0 
1.15669 -0.168312 0.0 
1.15444 -0.0802245 0.0 
0.14999 0.013009 0.0 
0.945129 -0.0323009 0.0 
0.0438614 0.00368777 0.0 
1.14159 -0.0505467 0.0 
0.129596 0.00527889 0.0 
0.278267 0.01683 0.0 
1.16097 -0.07391 0.0 
0.969113 -0.21317 0.0 
1.00397 0.0123812 0.0 
0.0453102 0.00586253 0.0 
0.982264 -0.0469727 0.0 
0 0 0.0 
0 0 0.0 
0.446463 0.0127831 0.0 
0.582341 -0.00606776 0.0 
1.15013 -0.0654143 0.0 
0.0266685 0.00336343 0.0 
0.828838 -0.055237 0.0 
0.0255624 0.00364605 0.0 
0.283781 0.0130268 0.0 
0.834518 -0.0155665 0.0 
0.25865 0.0146124 0.0 
1.02654 -0.0145234 0.0 
0.151506 -0.00310166 0.0 
0.056303 0.00355029 0.0 
1.14208 -0.088557 0.0 
1.14445 -0.0742878 0.0 
0.0926851 0.00128807 0.0 
1.08161 -0.00610396 0.0 
0.686016 -0.0915129 0.0 
0.313531 0.0182705 0.0 
0.925399 -0.0819385 0.0 
0 0 0.0 
0.717762 0.0156996 0.0 
0.78256 -0.00950803 0.0 
0.530921 -0.0111818 0.0 
0 0 0.0 
0.749992 -0.0142158 0.0 
1.16728 -0.115039 0.0 
0.382507 0.01901 0.0 
0 0 0.0 
0.541972 0.00478299 0.0 
0.00593242 0.00111212 0.0 
0.591994 0.0184822 0.0 
0 0 0.0 
1.16093 -0.105956 0.0 
0.865135 -0.172243 0.0 
1.11803 -0.148569 0.0 
0 0 0.0 
1.04184 -0.176397 0.0 
1.03052 -0.0367072 0.0 
0.892569 0.0174929 0.0 
0.0297834 0.00398931 0.0 
1.0199 -0.104409 0.0 
1.15556 -0.17571 0.0 
0.914908 -0.0996698 0.0 
0.893599 -0.0720986 0.0 
0.74484 -0.0729954 0.0 
1.12822 -0.177402 0.0 
0.0189552 0.00288251 0.0 
0.0574388 0.00659219 0.0 
0.81555 0.0123016 0.0 
0 0 0.0 
0.218823 0.013621 0.0 
0.607352 0.0188336 0.0 
0.299407 0.0108522 0.0 
0.030065 0.0038851 0.0 
0.109897 0.00816881 0.0 
0.0886122 0.00911516 0.0 
0.0864343 0.00774973 0.0 
0.887937 -0.0103057 0.0 
0.139698 -0.0174716 0.0 
0.77748 0.00351815 0.0 
1.13514 -0.139861 0.0 
1.12415 -0.0353813 0.0 
0.0413345 0.00421442 0.0 
0.884596 -0.0274051 0.0 
0.112435 0.0112634 0.0 
0.161226 0.0137709 0.0 
0.0485082 0.00635453 0.0 
0.178509 0.00962928 0.0 
1.11458 -0.227344 0.0 
0.656854 0.0250517 0.0 
0.916183 -0.0937005 0.0 
0.165243 -7.31002e-05 0.0 
1.00633 -0.00650538 0.0 
0.129075 0.0119733 0.0 
0.187874 0.00609107 0.0 
0.228493 0.0161384 0.0 
0.271753 0.0178891 0.0 
0.342614 0.0169498 0.0 
0.492261 -0.0147471 0.0 
0 0 0.0 
0.27063 0.0160267 0.0 
0.0871242 0.00321048 0.0 
0.143185 0.00485005 0.0 
0.914502 -0.04567 0.0 
0.427144 0.0204419 0.0 
0.58442 0.0143081 0.0 
0.648858 0.0173273 0.0 
0.730037 -0.0593106 0.0 
1.14224 -0.175634 0.0 
0.897508 5.1863e-05 0.0 
0.477257 -0.00608356 0.0 
0.735592 -0.0661216 0.0 
0 0 0.0 
1.14999 -0.0496813 0.0 
0.964704 -0.00599469 0.0 
0 0 0.0 
1.11137 -0.0830941 0.0 
0.794032 -0.135817 0.0 
0.159405 0.0100608 0.0 
0.842654 -0.0527665 0.0 
0.60143 0.0251751 0.0 
0.673284 -0.0121827 0.0 
1.14667 -0.18067 0.0 
0 0 0.0 
0.949067 -0.0799447 0.0 
0 0 0.0 
0.271185 -0.00131409 0.0 
0.269032 0.0160153 0.0 
0.078299 0.00908368 0.0 
0.237328 0.0084919 0.0 
0.977414 -0.15862 0.0 
0.855238 -0.0955096 0.0 
0.663378 0.0128656 0.0 
0.279379 0.00877775 0.0 
1.04785 -0.169788 0.0 
0.162412 0.00178684 0.0 
1.12645 -0.141868 0.0 
0.870256 -0.0766255 0.0 
0 0 0.0 
0.0299936 0.00432306 0.0 
0 0 0.0 
0.167089 -0.015088 0.0 
0.251049 0.0164882 0.0 
0.664184 0.0175785 0.0 
0.693666 0.0157379 0.0 
0.445484 0.00492397 0.0 
1.13481 -0.1648 0.0 
0.0495804 0.00418635 0.0 
0.213612 0.0148524 0.0 
0 0 0.0 
1.16065 -0.099466 0.0 
0.905706 -0.156727 0.0 
0.847728 0.00865111 0.0 
0.536905 0.0165585 0.0 
1.07932 -0.200644 0.0 
1.02089 -0.0508079 0.0 
1.0628 -0.0491147 0.0 
0 0 0.0 
1.10348 -0.0319083 0.0 
0.707599 -0.0842194 0.0 
0 0 0.0 
0.0558048 0.00510478 0.0 
0.139682 0.0127587 0.0 
0.375554 0.014292 0.0 
0.00823455 0.00160673 0.0 
0.335569 0.0181221 0.0 
0.727226 -0.137426 0.0 
1.04031 -0.235406 0.0 
0.59454 0.0159117 0.0 
0.280271 -0.0303787 0.0 
0.176836 0.0080128 0.0 
0.0925629 -0.00152462 0.0 
1.1674 -0.130026 0.0 
0.0344285 0.00381282 0.0 
0.635865 0.0151814 0.0 
1.11316 -0.113737 0.0 
0.95151 -0.0135411 0.0 
0.613289 -0.129495 0.0 
0 0 0.0 
0 0 0.0 
1.15574 -0.147175 0.0 
0.974835 0.00293614 0.0 
0.384921 0.018512 0.0 
1.07243 -0.00103591 0.0 
0.119973 -0.0126047 0.0 
1.12992 -0.0337392 0.0 
1.00583 -0.0686403 0.0 
0.607166 -0.109209 0.0 
1.01334 -0.078563 0.0 
1.11556 -0.0608251 0.0 
0.456404 0.0184666 0.0 
0.992406 -0.0430517 0.0 
0.58004 0.00881449 0.0 
0.244057 0.0134784 0.0 
1.12117 -0.122746 0.0 
0.210857 0.00515486 0.0 
1.15085 -0.0724366 0.0 
-0.00155036 -0.000499805 0.0 
0.674023 0.0143136 0.0 
1.00949 -0.0253434 0.0 
0.998789 -0.0610548 0.0 
0.147994 0.0105444 0.0 
1.12994 -0.0445595 0.0 
1.14931 -0.186522 0.0 
0 0 0.0 
0.306564 0.0184528 0.0 
0.429276 -0.030244 0.0 
0.198105 -0.00849111 0.0 
0.140203 -0.0248492 0.0 
0.988501 -0.191526 0.0 
0.508649 0.0198232 0.0 
0.606845 -0.0632563 0.0 
0.064366 0.00765256 0.0 
1.1615 -0.144948 0.0 
0.110571 0.00814357 0.0 
0.0769432 0.00759831 0.0 
0.781467 -0.0756943 0.0 
0.449244 0.0192515 0.0 
0.570295 -0.117298 0.0 
0.660507 -0.121692 0.0 
0.196333 0.00896855 0.0 
0.783052 -0.0693588 0.0 
1.16349 -0.0783254 0.0 
0 0 0.0 
0.992945 -0.0714403 0.0 
0.632832 -0.029453 0.0 
1.07573 -0.0968011 0.0 
0.0532479 0.00679188 0.0 
0.737442 -0.122488 0.0 
0.114027 0.0066034 0.0 
0.856132 -0.0819168 0.0 
0.464702 -0.0454835 0.0 
1.08355 -0.116025 0.0 
0.964266 -0.111688 0.0 
0.00477655 -0.000513687 0.0 
0 0 0.0 
1.0407 -0.158877 0.0 
0 0 0.0 
0.908434 -0.064857 0.0 
0 0 0.0 
0.997844 0.00592269 0.0 
0.742299 0.013415 0.0 
0.0144514 0.00253551 0.0 
0.635547 0.00765603 0.0 
1.1067 -0.0743045 0.0 
0.85583 0.01044 0.0 
1.14667 -0.19029 0.0 
0.854228 -0.0453278 0.0 
0.228118 -0.00965745 0.0 
0.0181653 0.00275796 0.0 
0 0 0.0 
0.498213 -0.000557893 0.0 
1.11753 -0.191181 0.0 
0.691229 -0.0572432 0.0 
0.3153 0.0187089 0.0 
0.248105 -0.00377298 0.0 
0.814218 -0.168168 0.0 
0.759044 -0.0476911 0.0 
0.782214 -0.0150875 0.0 
0.961024 -0.0764537 0.0 
1.03132 0.0063995 0.0 
0.649502 -0.0278531 0.0 
0.234638 0.0106806 0.0 
0.120083 0.0117069 0.0 
0.506442 0.011815 0.0 
0 0 0.0 
1.09135 -0.0566258 0.0 
0.670109 0.00951163 0.0 
0.531754 0.00715832 0.0 
1.02965 -0.196311 0.0 
0.141167 0.0130217 0.0 
1.16306 -0.13803 0.0 
0.608364 0.0143388 0.0 
1.06084 -0.223032 0.0 
1.12934 -0.118871 0.0 
1.11091 -0.22016 0.0 
1.00871 -0.131324 0.0 
0.0415908 0.00330407 0.0 
0.04479 0.00601416 0.0 
0.525073 0.0180136 0.0 
0.333318 -0.0167286 0.0 
0 0 0.0 
1.14904 -0.0850838 0.0 
0.00793975 0.00143937 0.0 
1.15767 -0.173467 0.0 
0.971717 -0.0995623 0.0 
0.954689 -0.0199755 0.0 
1.10164 -0.202221 0.0 
1.14461 -0.0674327 0.0 
0.0340475 0.00498279 0.0 
0.653771 -0.04936 0.0 
0 0 0.0 
0.566752 0.00132164 0.0 
0.0346361 0.00448314 0.0 
0.919844 -0.0558465 0.0 
0.0241806 0.00373846 0.0 
0.944357 -0.128096 0.0 
0.147758 -0.0135847 0.0 
1.16238 -0.130343 0.0 
0.341028 0.0194248 0.0 
1.08999 -0.0110034 0.0 
0.088573 0.00695408 0.0 
1.05301 -0.164841 0.0 
0 0 0.0 
0.815997 -0.0015115 0.0 
1.15794 -0.09007 0.0 
1.13779 -0.20376 0.0 
0.338956 -0.00981676 0.0 
1.06063 -0.10798 0.0 
0.530765 -0.0976528 0.0 
1.03825 -0.0916162 0.0 
1.05714 -0.228144 0.0 
0.579482 0.0115621 0.0 
0 0 0.0 
0.77328 -0.0455798 0.0 
0.670961 0.0206461 0.0 
0.766034 -0.116953 0.0 
0.01263 0.00191352 0.0 
0.174035 0.0138836 0.0 
0.0781601 0.00863497 0.0 
1.09037 -0.21167 0.0 
1e-307 1e-307 0.0 
0.662403 -0.025157 0.0 
0.223193 0.0120998 0.0 
1.04174 -0.0296344 0.0 
1.16847 -0.110782 0.0 
1.11886 -0.155713 0.0 
0.833846 -0.0962409 0.0 
0.883992 -0.141412 0.0 
1.15309 -0.134691 0.0 
0.328061 0.018842 0.0 
0.977785 -0.0939919 0.0 
0.367879 0.00549481 0.0 
0 0 0.0 
0.88273 -0.158249 0.0 
0.711339 -0.0742247 0.0 
1.16808 -0.102418 0.0 
0.112606 -0.0032143 0.0 
0.161776 0.00119571 0.0 
0.284988 0.0116863 0.0 
1.01121 -0.116836 0.0 
0.00119565 0.000134195 0.0 
1.08642 -0.2247 0.0 
0 0 0.0 
0.0186155 0.00284302 0.0 
0 0 0.0 
0.980651 -0.0310878 0.0 
0.799054 -0.0665863 0.0 
0.177239 0.0139756 0.0 
1.16032 -0.13299 0.0 
0.697577 0.00984919 0.0 
1.00977 -0.056009 0.0 
1.05888 -0.00332638 0.0 
0.548177 -0.036169 0.0 
0.0729231 0.0077792 0.0 
0.130231 0.0122673 0.0 
1.12482 -0.129094 0.0 
0.283966 0.0175692 0.0 
1.08782 -0.0431233 0.0 
0.0943179 0.0101777 0.0 
1.07649 -0.136953 0.0 
1.09448 -0.0343653 0.0 
0 0 0.0 
0.0296001 0.00384061 0.0 
1.07899 -0.0189807 0.0 
1.11922 -0.20423 0.0 
1.11912 -0.233053 0.0 
0 0 0.0 
0.299457 0.00961596 0.0 
1.11006 -0.0294642 0.0 
1.15109 -0.0580776 0.0 
0.590797 -0.0345904 0.0 
0.430832 0.0168721 0.0 
0.810625 -0.0565302 0.0 
0.0622961 0.00682667 0.0 
0.684622 -0.0403816 0.0 
0.646995 0.00889913 0.0 
1.02647 -0.00347117 0.0 
0.632851 -0.0443278 0.0 
0.655814 -0.04397 0.0 
1.13257 -0.192363 0.0 
0.957857 -0.0477374 0.0 
1.14304 -0.189044 0.0 
0.0425534 0.00337621 0.0 
0.271817 0.0170876 0.0 
0.122033 -0.00814928 0.0 
0.851846 -0.049195 0.0 
0.0180857 0.00281427 0.0 
0.839497 0.00710476 0.0 
0.749655 -0.145162 0.0 
1.15516 -0.17278 0.0 
0 0 0.0 
0.0977984 0.00862246 0.0 
0.848587 -0.00778075 0.0 
0.0390575 0.00547369 0.0 
1.15951 -0.14123 0.0 
0.479767 -0.0235864 0.0 
0.560418 0.0107166 0.0 
0.917005 -0.0874307 0.0 
0.214556 0.0161801 0.0 
0.270864 -0.00650864 0.0 
0.736746 -0.127786 0.0 
0.535085 -0.0212072 0.0 
0.300196 -0.00972799 0.0 
0.0192446 0.00312005 0.0 
1.13164 -0.200658 0.0 
0.201763 0.0158918 0.0 
0.388705 0.00820807 0.0 
1.10934 -0.184907 0.0 
1.16694 -0.0959115 0.0 
0.351637 -0.00695629 0.0 
0.395918 -0.0172749 0.0 
0.192688 0.0149317 0.0 
0.830615 -0.107366 0.0 
0.712833 -0.0364453 0.0 
0.163745 0.0133925 0.0 
0 0 0.0 
0.0135923 0.00234005 0.0 
0.799707 -0.0409582 0.0 
1.16288 -0.0819232 0.0 
0.498095 0.0203863 0.0 
0.575622 -0.0511103 0.0 
0.511495 -0.065627 0.0 
0.716409 -0.0267086 0.0 
0.72501 -0.0234038 0.0 
1.00825 -0.0823906 0.0 
0.072545 0.00847673 0.0 
0.267653 0.000470565 0.0 
1.07816 -0.129982 0.0 
0.576475 -0.022574 0.0 
0.363836 -0.00949445 0.0 
0.0825383 0.00906327 0.0 
0.44077 -0.0173486 0.0 
0.115019 0.00541612 0.0 
0.0513516 0.00652377 0.0 
1.16812 -0.119633 0.0 
0.553092 0.019719 0.0 
1.11014 -0.177158 0.0 
0.589026 -0.0442971 0.0 
0 0 0.0 
0.52755 -0.0263302 0.0 
0.43297 -0.024236 0.0 
0.942263 -0.0272449 0.0 
0 0 0.0 
0.343574 -0.0148749 0.0 
0.029721 0.0016332 0.0 
0.8309 -0.182895 0.0 