<VTKFile type="UnstructuredGrid" version="0.1" byte_order="LittleEndian">
  <UnstructuredGrid>
    <Piece NumberOfPoints="14117" NumberOfCells="27463">
      <Points>
        <DataArray type = "Float64" NumberOfComponents="3" format="ascii">
1.01826 0.988704 0.0 
1.03389 0.980012 0.0 
1.00393 0.973139 0.0 
1.00353 0.994253 0.0 
1.02041 0.989029 0.0 
1.02706 0.985431 0.0 
1.01489 0.984694 0.0 
1.00095 0.990666 0.0 
1.00445 0.993858 0.0 
1.02209 0.985104 0.0 
1.01527 0.992171 0.0 
1.00421 0.993948 0.0 
1.0155 0.990073 0.0 
1.0269 0.981659 0.0 
1.0366 0.949569 0.0 
1.00673 0.988542 0.0 
1.00714 0.986644 0.0 
1.02247 0.971931 0.0 
1.02847 0.989271 0.0 
1.0208 0.961583 0.0 
1.03395 0.985554 0.0 
1.02232 0.992719 0.0 
1.02321 0.986967 0.0 
1.02355 0.992539 0.0 
1.00384 0.987299 0.0 
1.00986 0.986375 0.0 
1.0104 0.98572 0.0 
1.02514 0.988932 0.0 
1.02419 0.991103 0.0 
1.01643 0.979473 0.0 
1.02466 0.991648 0.0 
1.01742 0.984982 0.0 
1.02492 0.990763 0.0 
1.02267 0.985599 0.0 
1.01706 0.992462 0.0 
1.01709 0.98704 0.0 
1.01854 0.987527 0.0 
1.0373 0.986044 0.0 
1.01574 0.987146 0.0 
1.00989 0.988003 0.0 
1.01356 0.989753 0.0 
1.03062 0.980414 0.0 
1.00075 0.98353 0.0 
1.03772 0.983993 0.0 
1.01416 0.987553 0.0 
1.02104 0.988066 0.0 
1.0222 0.98726 0.0 
1.0233 0.986073 0.0 
1.00662 0.972963 0.0 
1.02329 0.990176 0.0 
1.01457 0.985931 0.0 
1.02033 0.987747 0.0 
1.01635 0.992505 0.0 
1.02298 0.987939 0.0 
1.00451 0.982591 0.0 
1.01415 0.985433 0.0 
1.01919 0.982414 0.0 
1.01489 0.987014 0.0 
1.01671 0.99125 0.0 
0.998081 0.958703 0.0 
1.01677 0.990463 0.0 
1.01503 0.985458 0.0 
1.02521 0.972934 0.0 
1.01741 0.991151 0.0 
1.01566 0.991468 0.0 
1.01525 0.987477 0.0 
1.01544 0.989297 0.0 
1.0145 0.986498 0.0 
1.04446 0.957129 0.0 
1.01514 0.986199 0.0 
1.01633 0.993085 0.0 
1.02306 0.992615 0.0 
1.00287 0.985499 0.0 
1.01683 0.99309 0.0 
1.01688 0.991914 0.0 
1.01103 0.991632 0.0 
1.01708 0.993089 0.0 
1.01632 0.982944 0.0 
1.01858 0.993052 0.0 
1.00871 0.985899 0.0 
1.05343 0.969774 0.0 
1.01808 0.991795 0.0 
1.02396 0.986506 0.0 
1.00929 0.989345 0.0 
1.02369 0.975468 0.0 
1.01865 0.98402 0.0 
1.02282 0.984755 0.0 
1.00093 0.984931 0.0 
1.01846 0.992414 0.0 
1.02349 0.990929 0.0 
1.01739 0.990597 0.0 
1.00518 0.983938 0.0 
1.01828 0.989508 0.0 
1.01807 0.984521 0.0 
1.01606 0.989433 0.0 
1.01606 0.988673 0.0 
1.01183 0.982935 0.0 
1.04293 0.948033 0.0 
1.01269 0.981328 0.0 
1.01423 0.988386 0.0 
1.01468 0.987769 0.0 
1.0069 0.981128 0.0 
1.018 0.98377 0.0 
1.04197 0.982287 0.0 
1.0079 0.991826 0.0 
1.01349 0.987299 0.0 
1.00216 0.986212 0.0 
1.01668 0.984581 0.0 
1.01677 0.989182 0.0 
1.01048 0.990344 0.0 
1.00008 0.980029 0.0 
1.0282 0.991588 0.0 
1.02742 0.986712 0.0 
1.0078 0.989385 0.0 
1.01783 0.993078 0.0 
1.03898 0.982432 0.0 
1.04063 0.984963 0.0 
1.01738 0.982735 0.0 
1.01138 0.980352 0.0 
1.01775 0.992434 0.0 
1.0168 0.98365 0.0 
1.01594 0.985885 0.0 
1.0401 0.980869 0.0 
1.01627 0.986696 0.0 
1.04639 0.964144 0.0 
1.01339 0.986603 0.0 
1.01327 0.985002 0.0 
1.01039 0.97535 0.0 
1.03501 0.976743 0.0 
1.01689 0.988365 0.0 
1.03909 0.98584 0.0 
1.01747 0.991737 0.0 
1.01131 0.984206 0.0 
1.00322 0.986618 0.0 
1.00515 0.986423 0.0 
1.04177 0.984401 0.0 
1.04114 0.981171 0.0 
1.01048 0.987477 0.0 
1.04122 0.983932 0.0 
1.04078 0.983547 0.0 
1.04069 0.980133 0.0 
1.0117 0.976864 0.0 
1.01484 0.993022 0.0 
1.0075 0.991258 0.0 
1.01102 0.985101 0.0 
1.03859 0.980771 0.0 
1.01271 0.986333 0.0 
1.01033 0.983095 0.0 
1.03679 0.982696 0.0 
1.01833 0.993062 0.0 
1.01583 0.993072 0.0 
1.01227 0.9786 0.0 
1.01922 0.989575 0.0 
1.02008 0.992958 0.0 
1.03809 0.986475 0.0 
1.02433 0.988872 0.0 
1.03765 0.987377 0.0 
1.04144 0.98504 0.0 
1.03944 0.985089 0.0 
1.04039 0.986003 0.0 
1.02381 0.991793 0.0 
1.01509 0.983696 0.0 
1.00584 0.980319 0.0 
1.03699 0.98758 0.0 
1.03889 0.987355 0.0 
1.03651 0.98477 0.0 
1.03748 0.988598 0.0 
1.03886 0.984161 0.0 
1.03839 0.987304 0.0 
1.03979 0.987658 0.0 
1.03726 0.988106 0.0 
1.03889 0.984986 0.0 
1.00321 0.978875 0.0 
1.03995 0.983457 0.0 
1.03878 0.986643 0.0 
1.04027 0.986768 0.0 
1.0197 0.990244 0.0 
1.0146 0.980881 0.0 
1.03992 0.984352 0.0 
1.0247 0.983415 0.0 
1.01171 0.98545 0.0 
1.03803 0.987918 0.0 
1.03983 0.986059 0.0 
1.0391 0.987946 0.0 
1.00293 0.980531 0.0 
1.03817 0.988322 0.0 
1.02089 0.986659 0.0 
1.00384 0.976971 0.0 
1.01778 0.966091 0.0 
1.04148 0.980473 0.0 
1.04085 0.985551 0.0 
1.00128 0.98583 0.0 
1.01467 0.989156 0.0 
1.02646 0.991358 0.0 
1.03948 0.986481 0.0 
0.999233 0.978296 0.0 
1.03822 0.985652 0.0 
1.02723 0.99182 0.0 
1.03775 0.984943 0.0 
1.0366 0.988236 0.0 
1.00723 0.979907 0.0 
1.02751 0.976519 0.0 
1.022 0.990293 0.0 
1.01117 0.9862 0.0 
1.00146 0.981148 0.0 
1.03635 0.985696 0.0 
1.01162 0.986726 0.0 
1.03976 0.980221 0.0 
1.03887 0.988041 0.0 
1.01046 0.984756 0.0 
1.0041 0.981388 0.0 
1.038 0.982287 0.0 
1.02614 0.986728 0.0 
1.02601 0.992088 0.0 
1.04014 0.982573 0.0 
1.03397 0.964364 0.0 
1.03892 0.98162 0.0 
1.03714 0.986878 0.0 
1.02216 0.991154 0.0 
1.00645 0.99199 0.0 
1.03943 0.987106 0.0 
1.02588 0.985915 0.0 
1.041 0.984538 0.0 
1.01221 0.986876 0.0 
1.02048 0.9902 0.0 
1.02346 0.985246 0.0 
1.00458 0.978916 0.0 
1.03995 0.985335 0.0 
1.0061 0.979086 0.0 
1.01422 0.989598 0.0 
1.02426 0.977861 0.0 
1.04172 0.98316 0.0 
1.00164 0.984126 0.0 
0.999632 0.983101 0.0 
1.04145 0.98189 0.0 
1.02077 0.985148 0.0 
1.00347 0.984797 0.0 
1.0265 0.991984 0.0 
1.03678 0.988867 0.0 
1.03259 0.980473 0.0 
1.02258 0.988775 0.0 
1.03627 0.987548 0.0 
1.00644 0.967227 0.0 
1.02772 0.991706 0.0 
1.03988 0.977719 0.0 
1.01944 0.98602 0.0 
1.03626 0.989061 0.0 
1.0392 0.979813 0.0 
1.01641 0.989946 0.0 
1.0091 0.984831 0.0 
1.03583 0.954618 0.0 
1.02686 0.98734 0.0 
1.0112 0.981931 0.0 
1.01345 0.979637 0.0 
1.01332 0.982122 0.0 
1.01965 0.98884 0.0 
1.028 0.990883 0.0 
1.0399 0.979063 0.0 
1.00974 0.980272 0.0 
1.00041 0.977838 0.0 
1.00207 0.966492 0.0 
1.03737 0.981734 0.0 
1.02486 0.98459 0.0 
0.99786 0.977627 0.0 
1.01601 0.990696 0.0 
1.02014 0.986362 0.0 
1.03551 0.987197 0.0 
1.03541 0.98544 0.0 
1.01793 0.975407 0.0 
1.02359 0.984405 0.0 
1.02423 0.984905 0.0 
1.01945 0.985212 0.0 
1.03647 0.983731 0.0 
1.00832 0.981116 0.0 
1.036 0.9883 0.0 
1.00359 0.983694 0.0 
1.02523 0.987235 0.0 
1.01958 0.992996 0.0 
1.0194 0.987473 0.0 
1.0411 0.982833 0.0 
1.03536 0.984818 0.0 
1.00616 0.988191 0.0 
1.00846 0.98665 0.0 
1.0046 0.985859 0.0 
1.02616 0.982945 0.0 
0.998949 0.984162 0.0 
1.00198 0.977258 0.0 
1.02677 0.98902 0.0 
1.01198 0.988863 0.0 
1.04012 0.981759 0.0 
1.0181 0.982976 0.0 
1.02149 0.983923 0.0 
1.01998 0.992302 0.0 
1.01153 0.990134 0.0 
1.02649 0.990013 0.0 
1.02405 0.992458 0.0 
1.02008 0.984809 0.0 
1.00296 0.989929 0.0 
1.00837 0.970278 0.0 
1.02023 0.987045 0.0 
1.00722 0.977731 0.0 
1.02024 0.990871 0.0 
1.03638 0.958728 0.0 
1.02495 0.988094 0.0 
1.01884 0.985521 0.0 
1.04145 0.976998 0.0 
1.0117 0.984666 0.0 
1.02723 0.991151 0.0 
1.00709 0.990572 0.0 
1.02798 0.988523 0.0 
1.04107 0.962089 0.0 
1.02473 0.989756 0.0 
1.02511 0.98535 0.0 
1.02588 0.990771 0.0 
1.03624 0.986621 0.0 
1.03138 0.977851 0.0 
1.026 0.987672 0.0 
1.02076 0.980771 0.0 
1.02064 0.982823 0.0 
1.01982 0.982756 0.0 
1.00539 0.98776 0.0 
1.04018 0.952452 0.0 
1.01243 0.946159 0.0 
1.04866 0.975803 0.0 
1.02304 0.989435 0.0 
1.02115 0.97959 0.0 
1.03969 0.959936 0.0 
1.04296 0.959939 0.0 
1.0043 0.98666 0.0 
1.04068 0.956645 0.0 
0.99954 0.947867 0.0 
1.01761 0.956533 0.0 
1.02555 0.984795 0.0 
1.02187 0.988141 0.0 
1.02503 0.992282 0.0 
1.01861 0.991655 0.0 
1.00415 0.99338 0.0 
1.00398 0.994043 0.0 
1.02674 0.99193 0.0 
1.02182 0.992782 0.0 
1.01842 0.986239 0.0 
1.02481 0.957053 0.0 
1.01939 0.986691 0.0 
1.03778 0.974875 0.0 
1.03821 0.974088 0.0 
1.0269 0.962175 0.0 
0.999472 0.968864 0.0 
1.01947 0.990926 0.0 
1.03128 0.962672 0.0 
1.01908 0.993027 0.0 
1.01212 0.989663 0.0 
1.00542 0.975557 0.0 
1.00576 0.982781 0.0 
1.0351 0.973467 0.0 
1.00468 0.993773 0.0 
1.01817 0.985312 0.0 
1.03677 0.9738 0.0 
1.0269 0.98614 0.0 
1.02155 0.989528 0.0 
1.00453 0.98754 0.0 
1.02039 0.981935 0.0 
1.03642 0.976213 0.0 
1.02002 0.984074 0.0 
1.03963 0.96967 0.0 
1.02162 0.986762 0.0 
1.01237 0.987602 0.0 
1.01896 0.983228 0.0 
1.00675 0.991293 0.0 
1.01045 0.986668 0.0 
1.03033 0.967377 0.0 
1.02517 0.978426 0.0 
1.01305 0.98784 0.0 
1.03934 0.974403 0.0 
1.00293 0.982223 0.0 
1.0208 0.985923 0.0 
1.02142 0.985472 0.0 
1.00158 0.991161 0.0 
1.03781 0.98307 0.0 
1.00314 0.99377 0.0 
1.02383 0.965979 0.0 
1.03632 0.97543 0.0 
1.00179 0.992114 0.0 
1.01932 0.983801 0.0 
1.03676 0.979062 0.0 
1.02115 0.988769 0.0 
1.00689 0.982168 0.0 
1.02418 0.987335 0.0 
1.02734 0.942716 0.0 
1.03689 0.969831 0.0 
1.00316 0.992387 0.0 
1.03418 0.979176 0.0 
1.02824 0.990068 0.0 
1.03823 0.944207 0.0 
1.02142 0.992163 0.0 
1.01221 0.983936 0.0 
1.00848 0.987446 0.0 
1.00988 0.98424 0.0 
1.00823 0.985109 0.0 
1.00194 0.988892 0.0 
1.0087 0.979195 0.0 
1.00788 0.984047 0.0 
0.995309 0.952372 0.0 
1.02228 0.989488 0.0 
1.03707 0.979751 0.0 
1.00858 0.988221 0.0 
1.00111 0.963427 0.0 
1.03406 0.983919 0.0 
1.00975 0.981943 0.0 
1.00553 0.977642 0.0 
1.02024 0.945692 0.0 
1.00157 0.979317 0.0 
1.00809 0.975486 0.0 
1.01474 0.990373 0.0 
0.997238 0.962205 0.0 
1.01414 0.98428 0.0 
1.03358 0.940619 0.0 
1.00255 0.988249 0.0 
1.01072 0.98385 0.0 
1.00095 0.988705 0.0 
0.998277 0.982137 0.0 
1.0054 0.993549 0.0 
1.00569 0.989396 0.0 
1.00901 0.983689 0.0 
1.0091 0.950994 0.0 
1.01199 0.986182 0.0 
1.00661 0.962681 0.0 
1.01 0.99108 0.0 
1.00237 0.992356 0.0 
1.00443 0.992045 0.0 
1.03108 0.971957 0.0 
1.04045 0.97201 0.0 
1.02011 0.985579 0.0 
1.0223 0.983438 0.0 
1.00927 0.991102 0.0 
0.998366 0.979299 0.0 
1.01151 0.967104 0.0 
1.0224 0.951715 0.0 
1.01978 0.980384 0.0 
1.03575 0.97788 0.0 
1.00829 0.991204 0.0 
1.00383 0.990857 0.0 
1.03389 0.98847 0.0 
1.01004 0.988809 0.0 
1.00442 0.989789 0.0 
1.01414 0.990759 0.0 
1.00864 0.990597 0.0 
1.00993 0.990579 0.0 
1.00967 0.98522 0.0 
[...]
<PointData>
  <DataArray type = "Float64" Name="Vitesse" NumberOfComponents="3" format="ascii">
0.451203 -0.0651448 0.0 
0.80759 -0.218347 0.0 
0.878448 -0.183274 0.0 
0 0 0.0 
0.35572 -0.0495146 0.0 
0.571018 -0.12147 0.0 
0.878391 -0.198615 0.0 
0.741206 -0.372238 0.0 
0 0 0.0 
0.717531 -0.144875 0.0 
0.0769622 -0.000758635 0.0 
0 0 0.0 
0.34609 -0.0386125 0.0 
0.826555 -0.195229 0.0 
1.00267 -0.175971 0.0 
0.860555 -0.27762 0.0 
0.890551 -0.27129 0.0 
0.927674 -0.208715 0.0 
0.180623 -0.0394071 0.0 
0.943739 -0.184561 0.0 
0.404426 -0.111775 0.0 
0 0 0.0 
0.516813 -0.0930594 0.0 
0 0 0.0 
0.849192 -0.302499 0.0 
0.890856 -0.236114 0.0 
0.898504 -0.233342 0.0 
0.270604 -0.0467385 0.0 
0.0916943 -0.0143572 0.0 
0.911818 -0.21078 0.0 
0.0457558 -0.00773233 0.0 
0.827696 -0.17479 0.0 
0.109028 -0.0183113 0.0 
0.662925 -0.130157 0.0 
0.0431567 -0.00120156 0.0 
0.683069 -0.125426 0.0 
0.585154 -0.0990446 0.0 
0.276069 -0.0926406 0.0 
0.714283 -0.135415 0.0 
0.825622 -0.209078 0.0 
0.460825 -0.0654648 0.0 
0.829735 -0.210531 0.0 
0.820458 -0.236067 0.0 
0.456599 -0.144456 0.0 
0.726027 -0.142235 0.0 
0.452432 -0.0714664 0.0 
0.511733 -0.088697 0.0 
0.603699 -0.115811 0.0 
0.888623 -0.188624 0.0 
0.182214 -0.0263803 0.0 
0.835559 -0.181768 0.0 
0.507875 -0.082686 0.0 
0.0419616 -0.000260297 0.0 
0.418595 -0.0696511 0.0 
0.862042 -0.239838 0.0 
0.865269 -0.195202 0.0 
0.886627 -0.199236 0.0 
0.753394 -0.149739 0.0 
0.163718 -0.0103529 0.0 
0.904011 -0.133025 0.0 
0.260391 -0.024557 0.0 
0.849643 -0.185957 0.0 
0.929278 -0.215882 0.0 
0.165727 -0.0124995 0.0 
0.15331 -0.00793525 0.0 
0.696587 -0.130534 0.0 
0.460513 -0.0640113 0.0 
0.803373 -0.169349 0.0 
1.02422 -0.207945 0.0 
0.807394 -0.169252 0.0 
0 0 0.0 
0 0 0.0 
0.837208 -0.271535 0.0 
0 0 0.0 
0.0918075 -0.0038893 0.0 
0.22711 -0.0223902 0.0 
0 0 0.0 
0.898423 -0.205262 0.0 
0 0 0.0 
0.899309 -0.251391 0.0 
1.04685 -0.283092 0.0 
0.0935057 -0.00550354 0.0 
0.5446 -0.102665 0.0 
0.720496 -0.1754 0.0 
0.921216 -0.215127 0.0 
0.849124 -0.183525 0.0 
0.726914 -0.149697 0.0 
0.813048 -0.253672 0.0 
0.0407405 -0.0018573 0.0 
0.113459 -0.0164585 0.0 
0.23116 -0.0209921 0.0 
0.868369 -0.253816 0.0 
0.348019 -0.0430088 0.0 
0.837638 -0.178883 0.0 
0.420905 -0.0551286 0.0 
0.525566 -0.0803212 0.0 
0.907984 -0.224554 0.0 
1.02254 -0.174398 0.0 
0.907888 -0.218616 0.0 
0.629856 -0.111169 0.0 
0.685048 -0.127398 0.0 
0.881287 -0.228446 0.0 
0.866377 -0.190155 0.0 
0.504552 -0.181144 0.0 
0.339541 -0.0697323 0.0 
0.771773 -0.160649 0.0 
0.823257 -0.280003 0.0 
0.857976 -0.186904 0.0 
0.433226 -0.0585008 0.0 
0.500299 -0.0903879 0.0 
0.835099 -0.203708 0.0 
0 0 0.0 
0.441709 -0.0912144 0.0 
0.781945 -0.224866 0.0 
0 0 0.0 
0.56108 -0.179371 0.0 
0.280828 -0.106834 0.0 
0.89446 -0.202356 0.0 
0.903258 -0.218702 0.0 
0.0424448 -0.00142183 0.0 
0.882752 -0.197638 0.0 
0.808505 -0.168313 0.0 
0.659283 -0.21129 0.0 
0.739422 -0.143755 0.0 
1.02659 -0.244138 0.0 
0.824886 -0.181267 0.0 
0.888775 -0.209171 0.0 
0.898578 -0.201816 0.0 
0.901412 -0.246128 0.0 
0.537051 -0.0840817 0.0 
0.241498 -0.088473 0.0 
0.103744 -0.00558706 0.0 
0.906216 -0.228268 0.0 
0.839686 -0.290574 0.0 
0.870343 -0.284222 0.0 
0.300588 -0.117667 0.0 
0.616503 -0.206178 0.0 
0.843089 -0.209582 0.0 
0.3688 -0.137192 0.0 
0.419408 -0.150299 0.0 
0.700161 -0.22481 0.0 
0.901981 -0.207264 0.0 
0 0 0.0 
0.505039 -0.126074 0.0 
0.901643 -0.229094 0.0 
0.693381 -0.211615 0.0 
0.85372 -0.196493 0.0 
0.904308 -0.231373 0.0 
0.586347 -0.173586 0.0 
0 0 0.0 
0 0 0.0 
0.904259 -0.21231 0.0 
0.317847 -0.0394074 0.0 
0 0 0.0 
0.208569 -0.0747382 0.0 
0.291364 -0.0480395 0.0 
0.127918 -0.0472282 0.0 
0.241206 -0.0959969 0.0 
0.306896 -0.110458 0.0 
0.173592 -0.0688945 0.0 
0.044669 -0.00711706 0.0 
0.896154 -0.206337 0.0 
0.874209 -0.222896 0.0 
0.129742 -0.046274 0.0 
0.0804054 -0.0313042 0.0 
0.415795 -0.127369 0.0 
0 0 0.0 
0.413166 -0.138733 0.0 
0.108055 -0.0415996 0.0 
0 0 0.0 
0.0637709 -0.0238753 0.0 
0.333907 -0.116179 0.0 
0.859848 -0.208684 0.0 
0.449939 -0.154718 0.0 
0.165924 -0.0623426 0.0 
0.087368 -0.036447 0.0 
0.230762 -0.0255779 0.0 
0.910409 -0.213945 0.0 
0.366315 -0.130638 0.0 
0.775666 -0.171078 0.0 
0.893762 -0.220365 0.0 
0.0525779 -0.0207897 0.0 
0.19024 -0.0733579 0.0 
0 0 0.0 
0.853117 -0.219244 0.0 
0 0 0.0 
0.610206 -0.110471 0.0 
0.868278 -0.199573 0.0 
0.929118 -0.18899 0.0 
0.662588 -0.21987 0.0 
0.206947 -0.0821383 0.0 
0.811523 -0.268471 0.0 
0.508658 -0.0761882 0.0 
0.0436645 -0.00910098 0.0 
0.15636 -0.060295 0.0 
0.838874 -0.189251 0.0 
0.287755 -0.0996062 0.0 
0 0 0.0 
0.369334 -0.120985 0.0 
0.0749303 -0.0271246 0.0 
0.883178 -0.2206 0.0 
0.917586 -0.224009 0.0 
0.189508 -0.024607 0.0 
0.882596 -0.219565 0.0 
0.839476 -0.218543 0.0 
0.334619 -0.104874 0.0 
0.85658 -0.204984 0.0 
0.709707 -0.222404 0.0 
0 0 0.0 
0.904635 -0.234484 0.0 
0.86012 -0.228781 0.0 
0.59343 -0.182339 0.0 
0.469523 -0.0924138 0.0 
0 0 0.0 
0.523481 -0.17584 0.0 
0.97176 -0.218711 0.0 
0.626392 -0.196092 0.0 
0.197472 -0.0684981 0.0 
0.10992 -0.0137861 0.0 
0.415291 -0.117466 0.0 
0.0859115 -0.0341265 0.0 
0.554306 -0.112392 0.0 
0.313278 -0.118912 0.0 
0.836497 -0.192405 0.0 
0.222592 -0.0262144 0.0 
0.673525 -0.135842 0.0 
0.868139 -0.212181 0.0 
0.264938 -0.0991281 0.0 
0.87712 -0.215351 0.0 
0.459661 -0.0642283 0.0 
0.912774 -0.216004 0.0 
0.430185 -0.158386 0.0 
0.826962 -0.248071 0.0 
0.81257 -0.224809 0.0 
0.551532 -0.190991 0.0 
0.74524 -0.150222 0.0 
0.847558 -0.263148 0.0 
0 0 0.0 
0 0 0.0 
0.80291 -0.211184 0.0 
0.33662 -0.0515111 0.0 
0.157398 -0.0536127 0.0 
0.900307 -0.17108 0.0 
0 0 0.0 
0.842477 -0.254232 0.0 
0.70989 -0.136305 0.0 
0 0 0.0 
0.74409 -0.227896 0.0 
0.338939 -0.0383481 0.0 
0.901784 -0.244924 0.0 
0.995124 -0.190283 0.0 
0.39276 -0.0777855 0.0 
0.904965 -0.224371 0.0 
0.908108 -0.213865 0.0 
0.909342 -0.218048 0.0 
0.396383 -0.0556879 0.0 
0.0555712 -0.012943 0.0 
0.777105 -0.239519 0.0 
0.89654 -0.220837 0.0 
0.847361 -0.192437 0.0 
0.891081 -0.158506 0.0 
0.647774 -0.193042 0.0 
0.693231 -0.146646 0.0 
0.835938 -0.178813 0.0 
0.245643 -0.0210845 0.0 
0.66013 -0.122642 0.0 
0.213861 -0.068461 0.0 
0.381043 -0.113005 0.0 
0.9157 -0.206718 0.0 
0.735188 -0.15458 0.0 
0.683253 -0.141154 0.0 
0.771014 -0.155957 0.0 
0.508269 -0.151355 0.0 
0.890326 -0.227064 0.0 
0.0893468 -0.0312599 0.0 
0.850986 -0.25001 0.0 
0.439827 -0.0821692 0.0 
0 0 0.0 
0.565897 -0.0951683 0.0 
0.477677 -0.16864 0.0 
0.438238 -0.127432 0.0 
0.872244 -0.291552 0.0 
0.893443 -0.25474 0.0 
0.862242 -0.278014 0.0 
0.776101 -0.176418 0.0 
0.797387 -0.228669 0.0 
0.857918 -0.195576 0.0 
0.233102 -0.044675 0.0 
0.660225 -0.129058 0.0 
0.591259 -0.193703 0.0 
0.884883 -0.198008 0.0 
0.806192 -0.172114 0.0 
0.0405588 -0.00332346 0.0 
0.486049 -0.0793322 0.0 
0.149354 -0.0284078 0.0 
0 0 0.0 
0.783117 -0.161266 0.0 
0.809053 -0.358308 0.0 
0.899183 -0.183292 0.0 
0.588571 -0.103052 0.0 
0.884062 -0.209092 0.0 
0.157839 -0.0164631 0.0 
0.991248 -0.204545 0.0 
0.357978 -0.0631983 0.0 
0.763407 -0.152628 0.0 
0.859502 -0.264182 0.0 
0.902966 -0.224517 0.0 
0.0475791 -0.0102264 0.0 
0.666797 -0.193945 0.0 
0.2567 -0.0532302 0.0 
1.00329 -0.225072 0.0 
0.198934 -0.0326681 0.0 
0.624783 -0.127964 0.0 
0.0959072 -0.0178614 0.0 
0.249595 -0.0810797 0.0 
0.894635 -0.23158 0.0 
0.378459 -0.0713625 0.0 
0.900105 -0.206368 0.0 
0.863129 -0.191346 0.0 
0.873503 -0.19436 0.0 
0.871877 -0.300105 0.0 
1.01161 -0.187317 0.0 
0.951732 -0.139698 0.0 
0.865175 -0.288331 0.0 
0.258138 -0.038256 0.0 
0.908025 -0.20997 0.0 
1.00157 -0.213984 0.0 
1.01496 -0.218526 0.0 
0.857712 -0.290862 0.0 
1.00948 -0.202755 0.0 
0.929215 -0.121095 0.0 
0.945533 -0.168068 0.0 
0.660945 -0.139833 0.0 
0.422996 -0.0672926 0.0 
0 0 0.0 
0.101538 -0.00690375 0.0 
0.253497 -0.108834 0.0 
0 0 0.0 
0 0 0.0 
0 0 0.0 
0.718587 -0.137499 0.0 
0.961 -0.180973 0.0 
0.649236 -0.118071 0.0 
0.928369 -0.259538 0.0 
0.939133 -0.261146 0.0 
0.956845 -0.197325 0.0 
0.877428 -0.156491 0.0 
0.162096 -0.0151596 0.0 
0.967659 -0.207565 0.0 
0 0 0.0 
0.536881 -0.0905109 0.0 
0.878896 -0.196568 0.0 
0.873612 -0.241939 0.0 
0.94127 -0.248123 0.0 
0 0 0.0 
0.793804 -0.162625 0.0 
0.940879 -0.255227 0.0 
0.508752 -0.105097 0.0 
0.275625 -0.037469 0.0 
0.86064 -0.304108 0.0 
0.886266 -0.200258 0.0 
0.907514 -0.252454 0.0 
0.824386 -0.175675 0.0 
0.976193 -0.254413 0.0 
0.579365 -0.104141 0.0 
0.781672 -0.16992 0.0 
0.870616 -0.192307 0.0 
0.554351 -0.159071 0.0 
0.878208 -0.224655 0.0 
0.953866 -0.218096 0.0 
0.907507 -0.216603 0.0 
0.736761 -0.150033 0.0 
0.935136 -0.265665 0.0 
0.847792 -0.233373 0.0 
0.682605 -0.130939 0.0 
0.704751 -0.139141 0.0 
0.743433 -0.392338 0.0 
0.534011 -0.165588 0.0 
0.296103 -0.158363 0.0 
0.94188 -0.199817 0.0 
0.921295 -0.253634 0.0 
0.699894 -0.407028 0.0 
0.847338 -0.183381 0.0 
0.815944 -0.233746 0.0 
0.368801 -0.0538506 0.0 
0.882414 -0.235821 0.0 
0.454255 -0.0814941 0.0 
0.984978 -0.150572 0.0 
0.965348 -0.245435 0.0 
0.634677 -0.327793 0.0 
0.838689 -0.228054 0.0 
0.116724 -0.0257726 0.0 
1.01026 -0.161702 0.0 
0.0407515 -0.00445029 0.0 
0.906407 -0.222748 0.0 
0.878536 -0.25003 0.0 
0.90414 -0.237679 0.0 
0.897932 -0.252462 0.0 
0.799113 -0.333585 0.0 
0.890835 -0.216535 0.0 
0.893186 -0.247452 0.0 
0.914867 -0.118166 0.0 
0.266454 -0.0378628 0.0 
0.778236 -0.225648 0.0 
0.844851 -0.235103 0.0 
0.897255 -0.149302 0.0 
0.544796 -0.147952 0.0 
0.899528 -0.228451 0.0 
0.875764 -0.206692 0.0 
0.966911 -0.149232 0.0 
0.847998 -0.20602 0.0 
0.890173 -0.200293 0.0 
0.323745 -0.0341971 0.0 
0.893333 -0.136424 0.0 
0.894109 -0.208219 0.0 
1.00064 -0.150449 0.0 
0.819118 -0.321325 0.0 
0.906109 -0.231592 0.0 
0.777662 -0.319809 0.0 
0.808918 -0.206439 0.0 
0 0 0.0 
0.837209 -0.297511 0.0 
0.899554 -0.239941 0.0 
0.938302 -0.142835 0.0 
0.872178 -0.208738 0.0 
0.910762 -0.160732 0.0 
0.384224 -0.0624698 0.0 
0.676501 -0.384993 0.0 
0.594823 -0.248785 0.0 
0.941547 -0.230948 0.0 
0.964712 -0.266078 0.0 
0.728559 -0.143523 0.0 
0.81634 -0.177542 0.0 
0.420738 -0.0760836 0.0 
0.829004 -0.189759 0.0 
0.913377 -0.180596 0.0 
0.963595 -0.164883 0.0 
0.906536 -0.208209 0.0 
0.869447 -0.242418 0.0 
0.459806 -0.099877 0.0 
0.775219 -0.343312 0.0 
0.136278 -0.0420342 0.0 
0.751392 -0.177831 0.0 
0.828928 -0.331348 0.0 
0.282248 -0.0262267 0.0 
0.561633 -0.127897 0.0 
0.486886 -0.0903096 0.0 
0.902793 -0.241374 0.0 
0.724388 -0.377186 0.0 
0.446344 -0.0625095 0.0 
0.131748 -0.00530569 0.0 
0.904091 -0.1232 0.0 
0.910625 -0.210911 0.0 
0.940489 -0.130311 0.0 
0.210533 -0.0654451 0.0 
0.357171 -0.0505327 0.0 
0.797316 -0.35596 0.0 
0.933397 -0.230966 0.0 
0.857463 -0.181643 0.0 
0.27029 -0.0346935 0.0 
0 0 0.0 
0.97881 -0.208757 0.0 
0.259702 -0.0239652 0.0 
0.102307 -0.0036851 0.0 
0 0 0.0 
0.0426714 0.00114001 0.0 
0.128333 -0.00848866 0.0 
0.122114 -0.0109958 0.0 
0 0 0.0 
0.811098 -0.239741 0.0 
0.798993 -0.244987 0.0 
0 0 0.0 
0.881 -0.28746 0.0 
0 0 0.0 
0.964474 -0.253629 0.0 
0.95088 -0.247758 0.0 
0.739003 -0.394217 0.0 
0.257263 -0.0368941 0.0 
0.140193 -0.0188981 0.0 
0.820989 -0.299843 0.0 
0 0 0.0 
0.318111 -0.062033 0.0 
0.876986 -0.226542 0.0 
0.90432 -0.212933 0.0 
0.190711 -0.0298347 0.0 
0.315513 -0.0559398 0.0 
0.152692 -0.0269452 0.0 
0.929316 -0.201128 0.0 
0.803666 -0.258425 0.0 
0.163559 -0.0187175 0.0 
0 0 0.0 
1.07988 -0.218342 0.0 
0 0 0.0 
0.86411 -0.220656 0.0 
0.957836 -0.269429 0.0 
0 0 0.0 
0 0 0.0 
0 0 0.0 
0 0 0.0 
0.950994 -0.239275 0.0 
0.932519 -0.242027 0.0 
1.01602 -0.261606 0.0 
0.434458 -0.0679576 0.0 
0.808905 -0.168374 0.0 
0.779923 -0.167009 0.0 
0.0871997 -0.017349 0.0 
0.924478 -0.220132 0.0 
0.885912 -0.278593 0.0 
0.889608 -0.267079 0.0 
0.965109 -0.228209 0.0 
0.723078 -0.160302 0.0 
0.483058 -0.0754665 0.0 
0.178405 -0.0295193 0.0 
0.89131 -0.125889 0.0 
0 0 0.0 
0 0 0.0 
0.620403 -0.110207 0.0 
0 0 0.0 
0.599839 -0.371757 0.0 
0.493389 -0.0758327 0.0 
0.90864 -0.143831 0.0 
0.761845 -0.384135 0.0 
0.920693 -0.204184 0.0 
0.926667 -0.244192 0.0 
0.783109 -0.316483 0.0 
0.423225 -0.159666 0.0 
0.565628 -0.092098 0.0 
0 0 0.0 
0.770275 -0.380405 0.0 
0.928438 -0.172506 0.0 
0.701131 -0.135035 0.0 
0.940013 -0.212261 0.0 
0.836326 -0.310017 0.0 
0 0 0.0 
0 0 0.0 
0.924146 -0.109892 0.0 
0.808287 -0.342572 0.0 
0.903417 -0.110606 0.0 
0.637141 -0.182007 0.0 
0.678895 -0.189066 0.0 
0.907116 -0.190848 0.0 
0.592962 -0.13079 0.0 
0.848318 -0.318115 0.0 
0.905654 -0.210486 0.0 
0.621293 -0.107003 0.0 
0.716203 -0.250789 0.0 
0.799588 -0.205413 0.0 
0.90907 -0.214748 0.0 
0.83175 -0.232758 0.0 
0.846573 -0.209714 0.0 
0.881601 -0.197986 0.0 
0.804625 -0.286343 0.0 
0.878238 -0.277814 0.0 
0.897682 -0.214132 0.0 
0.797778 -0.362017 0.0 
0.872362 -0.259495 0.0 
0.694023 -0.275488 0.0 
0.940037 -0.239445 0.0 
0.0649405 0.000592091 0.0 
0.461089 -0.236671 0.0 
0.205945 -0.0287007 0.0 
0.854465 -0.229863 0.0 
0.833777 -0.240423 0.0 
0.367668 -0.0620688 0.0 
0.164754 -0.00788955 0.0 
0.78815 -0.164461 0.0 
0.10366 -0.0216932 0.0 
0.844103 -0.330413 0.0 
0.747393 -0.23981 0.0 
0.949071 -0.152823 0.0 
0.851078 -0.260824 0.0 
0.958627 -0.257809 0.0 
0.786039 -0.210892 0.0 
0.928331 -0.151411 0.0 
0.632231 -0.155728 0.0 
0.229331 -0.0175644 0.0 
0.908221 -0.208313 0.0 
0.864967 -0.21273 0.0 
0.380868 -0.0461428 0.0 
0.730983 -0.266298 0.0 
0.928941 -0.234275 0.0 
0 0 0.0 
1.00114 -0.263077 0.0 
0.612344 -0.200773 0.0 
0 0 0.0 
0.91272 -0.203582 0.0 
0.892186 -0.114281 0.0 
0.137354 -0.0456323 0.0 
0.811051 -0.269296 0.0 
0.765559 -0.233703 0.0 
0.827623 -0.261178 0.0 
0.981548 -0.176106 0.0 
0.592544 -0.150806 0.0 
0.758209 -0.168311 0.0 
0.715962 -0.202359 0.0 
0 0 0.0 
0.907292 -0.199818 0.0 
0.543157 -0.0864826 0.0 
0.833614 -0.200098 0.0 
0.906803 -0.213541 0.0 
0.808049 -0.177471 0.0 
0.720529 -0.314007 0.0 
0.979201 -0.269696 0.0 
0.919139 -0.133527 0.0 
0.0654382 -0.0228528 0.0 
0.940916 -0.221942 0.0 
0.8518 -0.286978 0.0 
0.948377 -0.254467 0.0 
0.675183 -0.177078 0.0 
0.831824 -0.337577 0.0 
0.785429 -0.273761 0.0 
0.996322 -0.24743 0.0 
0.898492 -0.217944 0.0 
1.01679 -0.230971 0.0 
0.448489 -0.140822 0.0 
0 0 0.0 
0 0 0.0 
0.631243 -0.124016 0.0 
0.234197 -0.0657742 0.0 
0.262043 -0.026974 0.0 
0.172192 -0.0352145 0.0 
0 0 0.0 
0.993555 -0.231819 0.0 
0 0 0.0 
0.242848 -0.0625454 0.0 
0 0 0.0 
0.367013 -0.08764 0.0 
0 0 0.0 
0.300232 -0.0380439 0.0 
0.246344 -0.0851472 0.0 
1.00851 -0.239762 0.0 
0.196329 -0.0440384 0.0 
0.666626 -0.142545 0.0 
0.638235 -0.113964 0.0 
0.65175 -0.305287 0.0 
0.859764 -0.314388 0.0 
0.915007 -0.219667 0.0 
0.787844 -0.186582 0.0 
0.643749 -0.140673 0.0 
0.464563 -0.209276 0.0 
0.879794 -0.231555 0.0 
0.491887 -0.126282 0.0 
0.849414 -0.315331 0.0 
0.0529707 -0.00316222 0.0 
0.881954 -0.164805 0.0 
0.706982 -0.182205 0.0 
0.919945 -0.210057 0.0 
0.132986 -0.0316693 0.0 
0.93 -0.134904 0.0 
0.78996 -0.370855 0.0 
0.907934 -0.2185 0.0 
0 0 0.0 
0.911013 -0.210369 0.0 
0.914173 -0.248068 0.0 
0.847619 -0.323133 0.0 
0.858736 -0.207926 0.0 
0.864049 -0.197808 0.0 
0.267449 -0.120731 0.0 
0.912343 -0.226345 0.0 
0.814395 -0.306737 0.0 
0.696332 -0.240675 0.0 
0.817126 -0.343507 0.0 
0.564384 -0.106617 0.0 
0.801501 -0.309761 0.0 
0.86251 -0.304601 0.0 
0.898749 -0.194306 0.0 
0.907618 -0.204492 0.0 
0.881588 -0.14486 0.0 
1.04375 -0.279831 0.0 
0.834762 -0.327775 0.0 
0.89001 -0.263405 0.0 
0.720121 -0.203461 0.0 
0.871856 -0.196028 0.0 
0.933369 -0.249039 0.0 
0 0 0.0 
0.82285 -0.200702 0.0 
0.988724 -0.255095 0.0 
0.0736449 -0.0235387 0.0 
0.0725135 -0.0237954 0.0 
0.804897 -0.187492 0.0 
0.891976 -0.237691 0.0 
0.533961 -0.315414 0.0 
0.881824 -0.24318 0.0 
0.898631 -0.213862 0.0 
0 0 0.0 
0.884174 -0.270538 0.0 
0.825725 -0.183074 0.0 
0.857132 -0.186623 0.0 
0.86756 -0.295496 0.0 
0.871778 -0.229832 0.0 
0.853603 -0.20806 0.0 
0.217479 -0.0599149 0.0 
0.403182 -0.0550776 0.0 
0 0 0.0 
0.994135 -0.162982 0.0 
0.283941 -0.0715646 0.0 
0.890757 -0.216991 0.0 
0.851234 -0.200858 0.0 
0.0588961 -0.014288 0.0 
0 0 0.0 
0.903781 -0.220699 0.0 
0.652813 -0.274353 0.0 
0.852088 -0.19048 0.0 
0.177871 -0.0469687 0.0 
0.525699 -0.0891864 0.0 
0.985883 -0.26311 0.0 
0.755518 -0.163423 0.0 
0.912941 -0.211952 0.0 
0.215306 -0.0384279 0.0 
0.0711726 -0.0248054 0.0 
0.59954 -0.111563 0.0 
0 0 0.0 
0.883545 -0.248296 0.0 
0.325379 -0.0395441 0.0 
0.0446965 -0.00636671 0.0 
0.889729 -0.223212 0.0 
0.190972 -0.0147243 0.0 
0.902717 -0.206291 0.0 
0.904553 -0.20698 0.0 
0.915265 -0.237216 0.0 
0 0 0.0 
0.0900544 -0.00326901 0.0 
0.0499523 -0.0150151 0.0 
0.870983 -0.231361 0.0 
0.0793328 -0.000210772 0.0 
0 0 0.0 
0.91793 -0.2429 0.0 
0.154069 -0.00862247 0.0 
0.817038 -0.172075 0.0 
0.0972773 -0.0272883 0.0 
0.975793 -0.19446 0.0 
0.886107 -0.211852 0.0 
0.777441 -0.342088 0.0 
0 0 0.0 
0.283335 -0.0662697 0.0 
0.242257 -0.0704034 0.0 
0.824111 -0.205783 0.0 
0 0 0.0 
0.866964 -0.186624 0.0 
0.883022 -0.202911 0.0 
0.530406 -0.102452 0.0 
0.876431 -0.289328 0.0 
0.819109 -0.188869 0.0 
0.918609 -0.218066 0.0 
0.915212 -0.232811 0.0 
0.923045 -0.237535 0.0 
0.846266 -0.179267 0.0 
0.815076 -0.224903 0.0 
0.924553 -0.225707 0.0 
0.701294 -0.156284 0.0 
0.796332 -0.196309 0.0 
0.73441 -0.159767 0.0 
0.961293 -0.235963 0.0 
0.892974 -0.244634 0.0 
0.920264 -0.221205 0.0 
0 0 0.0 
0.612334 -0.163183 0.0 
0.899624 -0.242934 0.0 
0.231694 -0.035905 0.0 
0.886496 -0.219101 0.0 
0.623746 -0.13193 0.0 
0.756956 -0.197339 0.0 
0 0 0.0 
0.817757 -0.210528 0.0 
0.949814 -0.262417 0.0 
0.916309 -0.21203 0.0 
0.907075 -0.23037 0.0 
0.748421 -0.188683 0.0 
0.722412 -0.138263 0.0 
0.892483 -0.227193 0.0 
0.631778 -0.109952 0.0 
0.0701163 0.000431696 0.0 
0.909658 -0.212424 0.0 
0.905236 -0.217907 0.0 
0.163102 -0.00813777 0.0 
0 0 0.0 
0.901852 -0.20887 0.0 
0.766234 -0.18854 0.0 
0.984689 -0.238131 0.0 
0.851049 -0.214514 0.0 
0.834768 -0.217971 0.0 
0 0 0.0 
0.346049 -0.0403147 0.0 
0.679962 -0.12457 0.0 
0.786063 -0.202021 0.0 
0.357213 -0.073832 0.0 
0.478196 -0.133015 0.0 
0.678681 -0.194941 0.0 
0 0 0.0 
0.204769 -0.0496163 0.0 
0 0 0.0 
0 0 0.0 
0.97848 -0.161157 0.0 
0.0747085 -0.0200781 0.0 
0.254805 -0.0217653 0.0 
0.144556 -0.0430959 0.0 
0.724665 -0.198399 0.0 
0.839244 -0.244078 0.0 
0.901538 -0.223419 0.0 
0.723618 -0.174082 0.0 
0.571774 -0.0974174 0.0 
0.294561 -0.0538141 0.0 
0.695175 -0.137706 0.0 
0.891293 -0.257594 0.0 
0 0 0.0 
0.380715 -0.0891504 0.0 
0.773463 -0.370042 0.0 
0 0 0.0 
0.504819 -0.108671 0.0 
0.35956 -0.0419742 0.0 
0.581905 -0.129142 0.0 
0.920615 -0.230076 0.0 
0.85062 -0.276704 0.0 
0.92453 -0.248914 0.0 
0.859214 -0.22524 0.0 
0.714125 -0.166877 0.0 
0.755917 -0.176095 0.0 
0.467819 -0.113103 0.0 
0.88709 -0.173998 0.0 
0 0 0.0 
0.85459 -0.204238 0.0 
0 0 0.0 
0.669868 -0.162079 0.0 
0.865672 -0.203406 0.0 
0.0471745 -0.0127521 0.0 
0 0 0.0 
0.870608 -0.217387 0.0 
0.309081 -0.0919946 0.0 
0.816413 -0.189454 0.0 
0.601409 -0.139046 0.0 
0 0 0.0 
0.774331 -0.21472 0.0 
0.873825 -0.221833 0.0 
0.858444 -0.265266 0.0 
0.980561 -0.246645 0.0 
0.644949 -0.141814 0.0 
0.664267 -0.175459 0.0 
0.0728839 -0.0220168 0.0 
0.890215 -0.203682 0.0 
0.914137 -0.209196 0.0 
0.0555233 -0.0144348 0.0 
0.89418 -0.20813 0.0 
0.810116 -0.195339 0.0 
0.395399 -0.100468 0.0 
0.876945 -0.200068 0.0 
0.909352 -0.209111 0.0 
0.612108 -0.121055 0.0 
0.766184 -0.205793 0.0 
0.152634 -0.0235349 0.0 
0.841113 -0.193255 0.0 
0.837876 -0.256532 0.0 
0.706726 -0.206525 0.0 
0.561267 -0.134779 0.0 
0.0833842 -0.00962332 0.0 
0.902276 -0.215655 0.0 
0.915892 -0.214464 0.0 
0.522739 -0.190897 0.0 
0.907907 -0.239529 0.0 
0.884057 -0.208152 0.0 
0.146018 -0.0464909 0.0 
0.737244 -0.160069 0.0 
0.32928 -0.0891692 0.0 
0.129688 -0.0373371 0.0 
0.0905639 -0.0232643 0.0 
0.805658 -0.182925 0.0 
0.428141 -0.0644829 0.0 
0.98814 -0.218988 0.0 
0.767305 -0.185245 0.0 
0 0 0.0 
0.129727 -0.0333744 0.0 
0.851343 -0.218845 0.0 
0.91051 -0.220906 0.0 
0.952238 -0.229274 0.0 
0.748057 -0.214695 0.0 
0.228348 -0.0515239 0.0 
0 0 0.0 
0.882004 -0.209588 0.0 
0.807721 -0.226593 0.0 
0.908847 -0.243599 0.0 
0 0 0.0 