<VTKFile type="UnstructuredGrid" version="0.1" byte_order="LittleEndian">
  <UnstructuredGrid>
    <Piece NumberOfPoints="14105" NumberOfCells="27469">
      <Points>
        <DataArray type = "Float64" NumberOfComponents="3" format="ascii">
1.00874 1.02139 0.0 
0.991917 1.0062 0.0 
1.01048 1.02746 0.0 
1.01269 1.0244 0.0 
1.01051 1.02978 0.0 
1.01258 1.02261 0.0 
1.03967 1.0275 0.0 
1.0081 1.01297 0.0 
1.0174 1.01617 0.0 
1.0101 1.03124 0.0 
0.999828 1.01148 0.0 
0.999267 1.00839 0.0 
1.00238 1.01423 0.0 
1.04978 1.0459 0.0 
1.03845 1.02725 0.0 
1.01151 1.02525 0.0 
1.00709 1.01535 0.0 
1.01201 1.03386 0.0 
1.00539 1.01768 0.0 
1.00957 1.02868 0.0 
1.00871 1.03013 0.0 
1.01031 1.03441 0.0 
1.01365 1.02752 0.0 
1.01308 1.02891 0.0 
0.995502 1.00418 0.0 
1.01238 1.03018 0.0 
1.01667 1.01649 0.0 
1.01165 1.02853 0.0 
1.01778 1.01479 0.0 
1.0124 1.02607 0.0 
1.01099 1.02409 0.0 
1.01011 1.03294 0.0 
1.03119 1.018 0.0 
0.989016 1.00981 0.0 
1.00404 1.01355 0.0 
0.988504 1.02965 0.0 
0.983515 1.02959 0.0 
0.986955 1.00438 0.0 
0.975532 1.02765 0.0 
0.99704 1.00999 0.0 
0.999748 1.01647 0.0 
1.00427 1.01653 0.0 
1.02955 1.0316 0.0 
1.01249 1.01454 0.0 
1.01189 1.01373 0.0 
1.01175 1.01428 0.0 
0.99383 1.00444 0.0 
1.00693 1.01695 0.0 
1.03665 1.02227 0.0 
1.01141 1.01831 0.0 
0.991353 1.01113 0.0 
1.00282 1.00826 0.0 
0.994008 1.00575 0.0 
1.00364 1.0168 0.0 
1.00537 1.01554 0.0 
1.00463 1.02183 0.0 
0.999011 1.01845 0.0 
1.0054 1.01624 0.0 
0.994319 1.0459 0.0 
0.994098 1.00375 0.0 
1.01256 1.01573 0.0 
1.00448 1.019 0.0 
0.992203 1.01049 0.0 
1.00155 1.00641 0.0 
1.0071 1.0212 0.0 
0.988889 1.01378 0.0 
0.993084 1.00703 0.0 
0.995526 1.01028 0.0 
0.992776 1.00858 0.0 
0.992317 1.01241 0.0 
1.01221 1.0212 0.0 
0.998313 1.01039 0.0 
0.99254 1.00781 0.0 
0.993919 1.00744 0.0 
1.00146 1.00855 0.0 
0.99591 1.01395 0.0 
0.999531 1.00714 0.0 
0.999565 1.02311 0.0 
1.00207 1.00726 0.0 
0.989396 1.01306 0.0 
0.978098 1.00795 0.0 
1.04455 1.03014 0.0 
0.991368 1.01049 0.0 
1.01086 1.01571 0.0 
0.999647 1.02141 0.0 
1.00485 1.01101 0.0 
0.994907 1.00352 0.0 
1.00774 1.04934 0.0 
1.0078 1.01684 0.0 
1.01387 1.01485 0.0 
0.99909 1.00391 0.0 
1.02978 1.01451 0.0 
1.02127 1.04403 0.0 
0.99675 1.00762 0.0 
1.00603 1.03519 0.0 
1.0102 1.01724 0.0 
1.00221 1.00747 0.0 
1.00251 1.00787 0.0 
0.99918 1.01282 0.0 
1.00127 1.0071 0.0 
1.00282 1.01553 0.0 
1.00167 1.01467 0.0 
1.00369 1.01591 0.0 
1.00453 1.01581 0.0 
0.994331 1.0154 0.0 
0.996284 1.03041 0.0 
1.00063 1.01594 0.0 
0.996349 1.01517 0.0 
0.99806 1.01874 0.0 
0.99399 1.023 0.0 
0.977144 1.02522 0.0 
1.0338 1.02147 0.0 
0.995525 1.0074 0.0 
0.983968 1.03242 0.0 
1.0093 1.01281 0.0 
1.00602 1.01426 0.0 
1.00045 1.00363 0.0 
1.00607 1.01549 0.0 
1.02549 1.0283 0.0 
0.993512 1.00512 0.0 
0.987952 1.00201 0.0 
0.989278 1.01487 0.0 
1.02421 1.04788 0.0 
0.993321 1.00621 0.0 
0.997196 1.01987 0.0 
1.04066 1.02898 0.0 
1.00132 1.00597 0.0 
1.04056 1.02254 0.0 
1.00377 1.01464 0.0 
0.995376 1.03387 0.0 
0.996905 1.00896 0.0 
0.98832 1.01455 0.0 
0.986 1.01594 0.0 
1.00363 1.01003 0.0 
1.00298 1.00846 0.0 
0.988272 1.00119 0.0 
1.03307 1.02188 0.0 
0.995107 1.01532 0.0 
0.996138 1.00796 0.0 
1.01028 1.01508 0.0 
1.00266 1.00807 0.0 
0.994728 1.00778 0.0 
1.00805 1.01729 0.0 
0.993102 1.00911 0.0 
1.00557 1.01149 0.0 
0.995125 1.011 0.0 
1.00318 1.01344 0.0 
0.997381 1.01186 0.0 
0.998694 1.01429 0.0 
0.998068 1.00814 0.0 
0.984556 1.02795 0.0 
1.00349 1.01872 0.0 
0.993717 1.01757 0.0 
0.995478 1.01356 0.0 
1.00307 1.0112 0.0 
1.03259 1.0181 0.0 
1.021 1.02099 0.0 
0.991573 1.00902 0.0 
0.99243 1.01513 0.0 
0.987845 1.0136 0.0 
1.00681 1.01582 0.0 
0.99577 1.00653 0.0 
0.993169 1.00786 0.0 
0.98724 1.00161 0.0 
1.03873 1.02799 0.0 
1.00596 1.01699 0.0 
1.00235 1.01491 0.0 
0.997281 1.0073 0.0 
1.00036 1.00707 0.0 
0.992829 1.01323 0.0 
1.03719 1.02036 0.0 
1.01237 1.01387 0.0 
1.00193 1.00706 0.0 
0.991256 1.02256 0.0 
0.996582 1.00603 0.0 
0.997171 1.00652 0.0 
1.02672 1.0162 0.0 
1.03668 1.02542 0.0 
1.00035 1.00537 0.0 
1.00005 1.00647 0.0 
0.99096 1.03333 0.0 
1.00955 1.01678 0.0 
1.02081 1.02324 0.0 
0.994228 1.0066 0.0 
0.998613 1.01341 0.0 
0.987087 1.01482 0.0 
1.02155 1.02291 0.0 
1.01035 1.01638 0.0 
0.998201 1.00517 0.0 
1.02202 1.01634 0.0 
0.977345 1.02271 0.0 
1.02658 1.01558 0.0 
0.998852 1.00467 0.0 
1.02708 1.02984 0.0 
1.03279 1.0199 0.0 
0.997336 1.02698 0.0 
1.02306 1.01553 0.0 
1.02295 1.01668 0.0 
1.00167 1.00663 0.0 
1.00526 1.019 0.0 
0.9969 1.02059 0.0 
0.999435 1.01459 0.0 
1.01724 1.01531 0.0 
1.02327 1.01479 0.0 
0.991896 1.01403 0.0 
1.00196 1.01281 0.0 
1.0075 1.0176 0.0 
0.996242 1.0046 0.0 
1.02266 1.01604 0.0 
1.00872 1.01698 0.0 
0.999104 1.01098 0.0 
1.00834 1.01535 0.0 
0.985594 1.02092 0.0 
0.989724 1.01206 0.0 
0.992934 1.01764 0.0 
0.993528 1.00844 0.0 
1.01432 1.01433 0.0 
0.988749 1.00199 0.0 
1.0089 1.0164 0.0 
0.999992 1.01059 0.0 
1.00409 1.01145 0.0 
0.988645 1.01259 0.0 
1.00129 1.00996 0.0 
0.987165 1.00524 0.0 
0.991519 1.00534 0.0 
1.02203 1.01776 0.0 
1.04026 1.04339 0.0 
1.01164 1.01673 0.0 
1.02953 1.0339 0.0 
0.986365 1.02273 0.0 
0.995484 1.01675 0.0 
0.99532 1.00805 0.0 
0.999423 1.00455 0.0 
1.00523 1.01421 0.0 
0.987621 1.03998 0.0 
1.00665 1.01764 0.0 
0.984618 1.00721 0.0 
0.991036 1.00947 0.0 
1.01728 1.01475 0.0 
0.997054 1.01445 0.0 
1.01334 1.01412 0.0 
1.01153 1.01753 0.0 
0.992174 1.00863 0.0 
1.00151 1.01207 0.0 
1.0095 1.02652 0.0 
0.999645 1.02602 0.0 
0.992999 1.01229 0.0 
1.03441 1.02269 0.0 
1.00907 1.01271 0.0 
0.994781 1.01621 0.0 
1.00006 1.00451 0.0 
0.988495 1.01566 0.0 
0.997132 1.00811 0.0 
1.03026 1.01911 0.0 
0.995627 1.01574 0.0 
1.0059 1.03161 0.0 
0.992144 1.00966 0.0 
0.997575 1.01495 0.0 
1.00252 1.02044 0.0 
0.9963 1.01616 0.0 
1.00635 1.02764 0.0 
1.01135 1.01897 0.0 
1.00064 1.02115 0.0 
0.999484 1.01746 0.0 
0.990725 1.01011 0.0 
0.995855 1.02111 0.0 
0.994075 1.01442 0.0 
1.0158 1.04079 0.0 
1.00419 1.01214 0.0 
0.994749 1.01027 0.0 
0.996044 1.0259 0.0 
1.02767 1.02252 0.0 
1.00281 1.01699 0.0 
0.996182 1.01966 0.0 
1.00116 1.01134 0.0 
1.00305 1.01629 0.0 
1.00571 1.02886 0.0 
1.00059 1.00588 0.0 
0.979193 1.0209 0.0 
1.00255 1.01094 0.0 
1.00512 1.01225 0.0 
1.03804 1.01995 0.0 
0.997072 1.01118 0.0 
1.00478 1.01018 0.0 
0.984996 1.00211 0.0 
1.01284 1.02102 0.0 
1.02051 1.02149 0.0 
1.03265 1.01576 0.0 
1.00061 1.01196 0.0 
0.994956 1.02223 0.0 
1.00863 1.02561 0.0 
1.00589 1.05324 0.0 
0.994746 1.00699 0.0 
1.00937 1.01501 0.0 
0.98609 1.03501 0.0 
0.991668 1.01758 0.0 
1.00143 1.00619 0.0 
0.999245 1.01365 0.0 
0.995673 1.00526 0.0 
0.995282 1.01186 0.0 
0.995856 1.01059 0.0 
1.00779 1.01563 0.0 
1.00492 1.01829 0.0 
1.03222 1.01959 0.0 
0.993614 1.01168 0.0 
1.00074 1.01994 0.0 
1.01165 1.01366 0.0 
0.993305 1.01542 0.0 
0.989845 1.01402 0.0 
0.992685 1.02947 0.0 
0.99375 1.01852 0.0 
1.00727 1.01412 0.0 
0.99826 1.01765 0.0 
0.998963 1.00597 0.0 
1.00997 1.02313 0.0 
1.00091 1.03118 0.0 
0.998021 1.01309 0.0 
1.0079 1.01845 0.0 
1.00314 1.00864 0.0 
1.00448 1.01074 0.0 
0.99185 1.01176 0.0 
0.998863 1.01675 0.0 
0.998921 1.03952 0.0 
0.998694 1.00706 0.0 
0.996449 1.00713 0.0 
0.983598 1.01999 0.0 
1.00571 1.0136 0.0 
0.993921 1.00962 0.0 
0.999875 1.01382 0.0 
0.995202 1.02004 0.0 
0.99472 1.00942 0.0 
1.00641 1.01133 0.0 
0.992229 1.01113 0.0 
0.994825 1.00549 0.0 
0.997981 1.01663 0.0 
1.00326 1.02333 0.0 
1.00571 1.02444 0.0 
0.984176 1.02136 0.0 
0.99861 1.02154 0.0 
1.00033 1.00315 0.0 
1.01101 1.01417 0.0 
1.02059 1.03556 0.0 
0.993714 1.01251 0.0 
0.996927 1.01773 0.0 
0.999015 1.00531 0.0 
1.01094 1.01956 0.0 
1.01594 1.0187 0.0 
0.994573 1.01264 0.0 
0.992928 1.00467 0.0 
1.00112 1.01413 0.0 
1.00413 1.01513 0.0 
0.994218 1.01099 0.0 
1.03466 1.0214 0.0 
1.03326 1.02117 0.0 
0.995488 1.01771 0.0 
0.997443 1.01043 0.0 
1.01273 1.01512 0.0 
1.00678 1.01302 0.0 
0.998451 1.01579 0.0 
0.992777 1.01157 0.0 
0.978526 1.0267 0.0 
1.00521 1.01722 0.0 
1.00959 1.01962 0.0 
0.993666 1.0166 0.0 
0.984616 1.02279 0.0 
0.998837 1.00766 0.0 
1.0005 1.00777 0.0 
1.00383 1.01312 0.0 
1.00821 1.01914 0.0 
1.03509 1.02077 0.0 
1.00706 1.01171 0.0 
0.999213 1.01565 0.0 
1.00292 1.01399 0.0 
1.01 1.01309 0.0 
0.998929 1.00902 0.0 
1.00538 1.01064 0.0 
0.992423 1.01889 0.0 
0.991472 1.00695 0.0 
1.0017 1.00782 0.0 
0.987255 1.01824 0.0 
0.994468 1.01748 0.0 
0.994706 1.00421 0.0 
0.995575 1.00475 0.0 
0.997908 1.00685 0.0 
1.01097 1.02198 0.0 
1.00051 1.00387 0.0 
1.00794 1.01218 0.0 
1.04225 1.04728 0.0 
1.00949 1.01751 0.0 
0.986315 1.00508 0.0 
1.00586 1.01231 0.0 
0.997519 1.01727 0.0 
0.998634 1.00825 0.0 
1.00416 1.01967 0.0 
1.00836 1.01387 0.0 
0.993753 1.02049 0.0 
1.00155 1.01072 0.0 
0.996356 1.01438 0.0 
1.02814 1.01573 0.0 
1.02794 1.01497 0.0 
1.02774 1.01425 0.0 
1.0231 1.02031 0.0 
1.02883 1.01839 0.0 
0.988663 1.02403 0.0 
1.01503 1.01982 0.0 
0.984596 1.03944 0.0 
0.994611 1.02091 0.0 
0.997696 1.01104 0.0 
1.00498 1.01034 0.0 
1.03347 1.01363 0.0 
1.00642 1.01506 0.0 
0.995821 1.01121 0.0 
1.0062 1.0112 0.0 
1.00966 1.01358 0.0 
1.02614 1.01678 0.0 
0.995469 1.00866 0.0 
0.999285 1.00654 0.0 
0.998645 1.00964 0.0 
1.00236 1.00767 0.0 
1.02063 1.02044 0.0 
1.00517 1.01049 0.0 
0.997149 1.00942 0.0 
1.00304 1.00955 0.0 
1.00121 1.00574 0.0 
1.02151 1.02043 0.0 
1.02171 1.0196 0.0 
1.01026 1.04007 0.0 
0.996542 1.01072 0.0 
1.00902 1.01564 0.0 
1.00817 1.01229 0.0 
1.01261 1.0217 0.0 
1.00402 1.00953 0.0 
1.00067 1.02536 0.0 
1.02499 1.01942 0.0 
0.999991 1.00846 0.0 
1.00002 1.01529 0.0 
1.00884 1.01321 0.0 
0.995315 1.00588 0.0 
0.998904 1.01758 0.0 
1.02881 1.01914 0.0 
0.996172 1.01833 0.0 
0.992304 1.01664 0.0 
1.0381 1.02075 0.0 
1.03657 1.01931 0.0 
1.03514 1.01532 0.0 
1.00535 1.0129 0.0 
0.994421 1.01178 0.0 
0.990702 1.00552 0.0 
0.988389 1.01826 0.0 
1.00341 1.01185 0.0 
1.00231 1.01621 0.0 
0.997932 1.01408 0.0 
1.0018 1.00684 0.0 
0.999792 1.01224 0.0 
1.00429 1.0346 0.0 
1.00355 1.01412 0.0 
0.994266 1.00487 0.0 
0.998604 1.01257 0.0 
1.00451 1.01741 0.0 
[...]
<PointData>
  <DataArray type = "Float64" Name="Vitesse" NumberOfComponents="3" format="ascii">
1.15917 0.429719 0.0 
0.569804 0.273641 0.0 
1.14842 0.32253 0.0 
1.19919 0.34376 0.0 
1.13706 0.29713 0.0 
1.21466 0.368366 0.0 
1.19694 0.093149 0.0 
0.332054 0.164253 0.0 
0.387191 0.0597866 0.0 
1.1273 0.284972 0.0 
0.740701 0.631019 0.0 
0.530461 0.623315 0.0 
0.925542 0.627736 0.0 
1.16482 0.0762239 0.0 
1.19922 0.0981566 0.0 
1.17645 0.343606 0.0 
1.02274 0.534493 0.0 
1.13285 0.255588 0.0 
1.07995 0.539264 0.0 
1.13197 0.31316 0.0 
1.11741 0.300585 0.0 
1.11787 0.257378 0.0 
1.18283 0.300539 0.0 
1.16667 0.290941 0.0 
0.396224 0.312868 0.0 
1.15303 0.283904 0.0 
0.52093 0.0973401 0.0 
1.15519 0.304114 0.0 
0 0 0.0 
1.18104 0.325902 0.0 
1.17842 0.36411 0.0 
1.12117 0.269861 0.0 
0.395219 0.00798344 0.0 
0.691029 0.268271 0.0 
0.925315 0.635913 0.0 
0.940689 0.2462 0.0 
0.92294 0.215928 0.0 
0.6426 0.159934 0.0 
0.901699 0.173754 0.0 
0.635344 0.516331 0.0 
0.903603 0.509066 0.0 
1.03504 0.572508 0.0 
1.21843 0.158229 0.0 
0.256335 0.0742976 0.0 
0 0 0.0 
0.248841 0.0760201 0.0 
0.471167 0.271913 0.0 
1.10993 0.545079 0.0 
0.920413 0.054247 0.0 
1.16102 0.417356 0.0 
0.698707 0.328684 0.0 
0 0 0.0 
0.503969 0.319635 0.0 
1.01833 0.559901 0.0 
1.04376 0.594718 0.0 
1.07041 0.432432 0.0 
0.92413 0.455034 0.0 
1.06254 0.57907 0.0 
1.02139 0.191699 0.0 
0.442726 0.252438 0.0 
0.654821 0.201982 0.0 
1.0598 0.499669 0.0 
0.676967 0.345311 0.0 
0 0 0.0 
1.12476 0.443576 0.0 
0.763288 0.291188 0.0 
0.566288 0.322775 0.0 
0.650081 0.45134 0.0 
0.617937 0.340961 0.0 
0.72506 0.357895 0.0 
1.21927 0.391833 0.0 
0.660901 0.577335 0.0 
0.599278 0.322057 0.0 
0.562579 0.35781 0.0 
0.419748 0.528344 0.0 
0.776828 0.451122 0.0 
0.407891 0.589575 0.0 
0.985974 0.383666 0.0 
0 0 0.0 
0.748777 0.297715 0.0 
0.770248 0.134386 0.0 
1.20462 0.0811916 0.0 
0.683602 0.324449 0.0 
0.822872 0.310206 0.0 
0.97265 0.41089 0.0 
0.332719 0.250747 0.0 
0.40221 0.26383 0.0 
1.07714 0.18019 0.0 
1.11424 0.525643 0.0 
0.227257 0.0520384 0.0 
0.159662 0.362288 0.0 
0.022648 -0.00253396 0.0 
1.13898 0.17041 0.0 
0.515543 0.482815 0.0 
1.08288 0.260186 0.0 
1.10881 0.442058 0.0 
0 0 0.0 
0 0 0.0 
0.786141 0.576303 0.0 
0.199709 0.317592 0.0 
0.97186 0.592392 0.0 
0.914966 0.599911 0.0 
1.00739 0.5893 0.0 
1.03132 0.594674 0.0 
0.801993 0.399839 0.0 
0.993571 0.284983 0.0 
0.914097 0.540052 0.0 
0.814528 0.450692 0.0 
0.912267 0.434716 0.0 
0.92018 0.331597 0.0 
0.888741 0.183008 0.0 
0.872486 0.0558642 0.0 
0.528706 0.419336 0.0 
0.939454 0.21058 0.0 
0 0 0.0 
0.940988 0.554851 0.0 
0 0 0.0 
1.04597 0.577692 0.0 
1.23587 0.190577 0.0 
0.500038 0.285761 0.0 
0.604705 0.121174 0.0 
0.780754 0.300146 0.0 
1.1346 0.150702 0.0 
0.536545 0.310958 0.0 
0.916594 0.405062 0.0 
1.20988 0.0944916 0.0 
0 0 0.0 
0.894774 0.0406731 0.0 
0.978873 0.627691 0.0 
1.00063 0.255978 0.0 
0.58483 0.506841 0.0 
0.777454 0.283819 0.0 
0.802122 0.253744 0.0 
0.325338 0.296318 0.0 
0 0 0.0 
0.593538 0.104374 0.0 
0.936846 0.0681882 0.0 
0.805763 0.418664 0.0 
0.542957 0.457727 0.0 
0.715146 0.284344 0.0 
0 0 0.0 
0.559492 0.393543 0.0 
1.12984 0.51704 0.0 
0.628931 0.35731 0.0 
0.322694 0.219109 0.0 
0.677635 0.438095 0.0 
0.914464 0.654787 0.0 
0.719246 0.520777 0.0 
0.82578 0.529567 0.0 
0.52684 0.562542 0.0 
0.915551 0.226753 0.0 
1.03123 0.502545 0.0 
0.841886 0.372334 0.0 
0.762024 0.441771 0.0 
0.688144 0.59864 0.0 
0.395639 0.00695781 0.0 
1.13427 0.201228 0.0 
0.645318 0.31449 0.0 
0.787453 0.359532 0.0 
0.763971 0.273292 0.0 
1.06392 0.555277 0.0 
0.483527 0.409596 0.0 
0.589779 0.341329 0.0 
0.61771 0.109182 0.0 
1.20833 0.10021 0.0 
1.09007 0.556573 0.0 
0.943032 0.60519 0.0 
0.486476 0.504704 0.0 
0.338704 0.5291 0.0 
0.744908 0.37137 0.0 
0.667347 0.0236761 0.0 
0 0 0.0 
0 0 0.0 
0.895966 0.305258 0.0 
0.435171 0.432983 0.0 
0.443614 0.479366 0.0 
0.17466 -0.00288916 0.0 
1.15976 0.0950924 0.0 
0.134485 0.294468 0.0 
0.298839 0.505332 0.0 
0.972168 0.2413 0.0 
1.08524 0.45777 0.0 
1.24301 0.238521 0.0 
0.526297 0.349961 0.0 
0.796065 0.543975 0.0 
0.784651 0.266074 0.0 
1.23042 0.22414 0.0 
0.999131 0.397366 0.0 
0.312455 0.47109 0.0 
0.256636 0.0121952 0.0 
0.873164 0.183764 0.0 
0.0980707 -0.00455074 0.0 
0.232366 0.437432 0.0 
1.22766 0.176178 0.0 
0.667832 0.0322348 0.0 
0.985374 0.321323 0.0 
0.0985264 -0.00107481 0.0 
0.303957 0.0150054 0.0 
0 0 0.0 
1.08086 0.501386 0.0 
0.922321 0.391293 0.0 
0.850864 0.544681 0.0 
0.155457 0.0188713 0.0 
0 0 0.0 
0.763376 0.349819 0.0 
0.858389 0.662448 0.0 
1.13204 0.524569 0.0 
0.378653 0.360495 0.0 
0.188293 0.0050362 0.0 
1.11754 0.497012 0.0 
0.701782 0.608147 0.0 
0.9576 0.45764 0.0 
0.859399 0.250179 0.0 
0.728276 0.299282 0.0 
0.837926 0.358029 0.0 
0.602491 0.362171 0.0 
0 0 0.0 
0.58655 0.125583 0.0 
1.0699 0.47556 0.0 
0.692705 0.653375 0.0 
0.621476 0.498596 0.0 
0.743585 0.282145 0.0 
0.634282 0.664567 0.0 
0.64789 0.176915 0.0 
0.560422 0.244539 0.0 
0.561203 0.0575246 0.0 
1.17169 0.104188 0.0 
0.974269 0.344906 0.0 
1.20515 0.156187 0.0 
0.878537 0.25444 0.0 
0.840905 0.413572 0.0 
0.560262 0.422055 0.0 
0.17375 0.385283 0.0 
0.963579 0.598218 0.0 
0.982467 0.199991 0.0 
1.11419 0.534153 0.0 
0.704499 0.177493 0.0 
0.662674 0.30664 0.0 
0 0 0.0 
0.803779 0.478634 0.0 
0 0 0.0 
1.09161 0.39143 0.0 
0.627217 0.324726 0.0 
0.808255 0.670866 0.0 
1.14126 0.339677 0.0 
1.00563 0.344841 0.0 
0.720971 0.37503 0.0 
1.00162 0.0739778 0.0 
0 0 0.0 
0.823175 0.403747 0.0 
0.0930011 0.25615 0.0 
0.7944 0.28837 0.0 
0.536804 0.510418 0.0 
0.588916 0.0285078 0.0 
0.820388 0.427077 0.0 
1.08576 0.291662 0.0 
0.655401 0.336219 0.0 
0.82488 0.485933 0.0 
1.01947 0.453644 0.0 
0.837518 0.437891 0.0 
1.09598 0.335607 0.0 
1.19132 0.42481 0.0 
0.987471 0.4247 0.0 
0.917106 0.48222 0.0 
0.680342 0.305689 0.0 
0.916415 0.371908 0.0 
0.777347 0.399416 0.0 
1.12963 0.201163 0.0 
0.748694 0.563883 0.0 
0.653 0.422372 0.0 
0.96513 0.323387 0.0 
1.11139 0.130664 0.0 
0.995055 0.54607 0.0 
0.900568 0.392962 0.0 
0.757413 0.676088 0.0 
0.992506 0.570311 0.0 
1.08677 0.321645 0.0 
0.15239 0.311472 0.0 
0.85922 0.194692 0.0 
0.690647 0.630141 0.0 
0.659299 0.457378 0.0 
0.600415 0.0165197 0.0 
0.688928 0.513688 0.0 
0 0 0.0 
0.660507 0.107957 0.0 
1.22611 0.38272 0.0 
1.18314 0.222475 0.0 
0.114335 -0.00401535 0.0 
0.782421 0.64987 0.0 
0.920519 0.349354 0.0 
1.13353 0.356659 0.0 
1.06743 0.167342 0.0 
0.528663 0.37807 0.0 
0.803262 0.351529 0.0 
0.958516 0.212264 0.0 
0.830334 0.336804 0.0 
0 0 0.0 
0.817137 0.56023 0.0 
0.431286 0.364076 0.0 
0.707838 0.4433 0.0 
0.662001 0.465263 0.0 
1.02954 0.510001 0.0 
1.06918 0.521029 0.0 
0.629493 0.0290906 0.0 
0.702721 0.390849 0.0 
0.97757 0.448813 0.0 
0 0 0.0 
0.796761 0.37698 0.0 
0.765065 0.308809 0.0 
0.962424 0.272695 0.0 
0.858138 0.365836 0.0 
0.823311 0.442365 0.0 
0.897093 0.45646 0.0 
0.331008 0.526102 0.0 
1.17004 0.3875 0.0 
1.03696 0.293524 0.0 
0.774436 0.529013 0.0 
1.14819 0.502171 0.0 
0 0 0.0 
0.337916 0.26895 0.0 
0.710971 0.344109 0.0 
0.890732 0.484725 0.0 
1.03528 0.228734 0.0 
0.435303 0.572011 0.0 
0.495906 0.456799 0.0 
0.849247 0.231042 0.0 
0.867754 0.537971 0.0 
0.636473 0.388672 0.0 
0.837954 0.576296 0.0 
0.895137 0.374364 0.0 
0.622446 0.415347 0.0 
0 0 0.0 
0.693457 0.35038 0.0 
0.469557 0.339077 0.0 
0.872304 0.468364 0.0 
1.04775 0.400498 0.0 
1.09093 0.383577 0.0 
0.862238 0.235891 0.0 
0.957669 0.398252 0.0 
0 0 0.0 
0.306431 0.106343 0.0 
1.173 0.203189 0.0 
0.726251 0.394664 0.0 
0.878014 0.430178 0.0 
0.272125 0.483811 0.0 
1.2017 0.43247 0.0 
1.04887 0.260668 0.0 
0.73091 0.419147 0.0 
0.506541 0.256853 0.0 
0.882912 0.603795 0.0 
1.00434 0.614677 0.0 
0.679814 0.407307 0.0 
0.847336 0.0500127 0.0 
0.843641 0.0531471 0.0 
0.860053 0.403721 0.0 
0.657343 0.534302 0.0 
0.43752 0.128002 0.0 
0.600178 0.343711 0.0 
0.861648 0.493752 0.0 
0.702378 0.367025 0.0 
0.898219 0.190584 0.0 
1.07104 0.552826 0.0 
1.18375 0.455637 0.0 
0.822761 0.377952 0.0 
0.875682 0.238258 0.0 
0.479415 0.594547 0.0 
0.415816 0.584371 0.0 
0.889672 0.638885 0.0 
1.15662 0.483501 0.0 
0.756338 0.0373676 0.0 
0 0 0.0 
0.873643 0.514866 0.0 
0.93314 0.641654 0.0 
0 0 0.0 
0.580404 0.613887 0.0 
0 0 0.0 
0.855151 0.342161 0.0 
0.596594 0.278865 0.0 
0.233983 0.331956 0.0 
0.830813 0.271441 0.0 
0.846071 0.386913 0.0 
0.430717 0.287611 0.0 
0.413559 0.33991 0.0 
0.442553 0.527921 0.0 
1.19617 0.397258 0.0 
0 0 0.0 
0 0 0.0 
1.16042 0.0967068 0.0 
1.13947 0.474292 0.0 
0.660078 0.165507 0.0 
0.541855 0.350812 0.0 
0.877837 0.448344 0.0 
0.527308 0.593363 0.0 
1.05424 0.48099 0.0 
0.614448 0.298061 0.0 
0.888095 0.350123 0.0 
0.707938 0.675882 0.0 
0.793428 0.459792 0.0 
0.111745 -0.00528638 0.0 
0.0427064 -0.00484957 0.0 
0 0 0.0 
0.989617 0.138357 0.0 
0.49482 0.0209055 0.0 
0.898268 0.271892 0.0 
1.18834 0.326272 0.0 
0.970687 0.192086 0.0 
0.901277 0.357769 0.0 
0.687343 0.541954 0.0 
0 0 0.0 
0.00437297 -0.000396123 0.0 
1.01207 0.560414 0.0 
0.685258 0.463517 0.0 
0 0 0.0 
0.286578 0.119401 0.0 
0.267115 0.00333998 0.0 
0.584374 0.437014 0.0 
0.363705 0.558956 0.0 
0.620321 0.598943 0.0 
0 0 0.0 
1.08924 0.192893 0.0 
0 0 0.0 
0.606718 0.521059 0.0 
0.333665 0.340603 0.0 
0 0 0.0 
1.06042 0.173808 0.0 
0.9339 0.138574 0.0 
1.10291 0.220251 0.0 
0.667434 0.493278 0.0 
0.96232 0.431725 0.0 
0 0 0.0 
1.22193 0.379573 0.0 
0 0 0.0 
1.01558 0.358608 0.0 
0.782342 0.0794162 0.0 
0.520926 0.639865 0.0 
0.883775 0.543008 0.0 
0.280064 0.124328 0.0 
0.468988 0.371152 0.0 
0.90766 0.469539 0.0 
0.624376 0.0368027 0.0 
0.878989 0.409003 0.0 
0.816472 0.351821 0.0 
0.70878 0.0260428 0.0 
0.527564 0.0129462 0.0 
0.0817062 -0.00236136 0.0 
0.774672 0.510562 0.0 
0.704624 0.415333 0.0 
0.583152 0.232949 0.0 
0.83197 0.286096 0.0 
0.764559 0.617537 0.0 
0.968122 0.563068 0.0 
0.805712 0.50999 0.0 
0 0 0.0 
0.775958 0.612857 0.0 
1.06938 0.265962 0.0 
0.955645 0.640705 0.0 
0.468037 0.299635 0.0 
0.765125 0.559192 0.0 
1.05178 0.546234 0.0 
1.1672 0.0889762 0.0 
1.00238 0.440143 0.0 
0 0 0.0 
1.14913 0.393931 0.0 
1.12797 0.401025 0.0 
0.683546 0.385142 0.0 
0.328892 0.0147663 0.0 
0.679211 0.134698 0.0 
1.0139 0.479148 0.0 
0.847491 0.476941 0.0 
0.783148 0.424142 0.0 
0.1909 0.404364 0.0 
0.480451 0.0243621 0.0 
0.843498 0.262036 0.0 
0.970864 0.29335 0.0 
0.782191 0.501852 0.0 
0 0 0.0 
0.448574 0.32267 0.0 
1.09378 0.204878 0.0 
0 0 0.0 
0.500827 0.559726 0.0 
0.874177 0.385473 0.0 
0.846889 0.044826 0.0 
0.958664 0.184569 0.0 
1.15484 0.232543 0.0 
0.100971 -0.00535015 0.0 
0.648119 0.101871 0.0 
0.634125 0.0944423 0.0 
0.80854 0.274304 0.0 
0 0 0.0 
0.99211 0.339409 0.0 
0.323711 0.201189 0.0 
0.496613 0.360313 0.0 
0.729424 0.338545 0.0 
0.205485 0.00255727 0.0 
0.551299 0.557173 0.0 
0.793918 0.09094 0.0 
0.414128 0.0183355 0.0 
0.747065 0.33425 0.0 
0.93966 0.552961 0.0 
1.18518 0.386139 0.0 
0 0 0.0 
0 0 0.0 
0.575554 0.581161 0.0 
0.80587 0.46104 0.0 
0.550417 0.509636 0.0 
0.594473 0.640123 0.0 
0 0 0.0 
1.08463 0.418391 0.0 
1.01052 0.610642 0.0 
0 0 0.0 
0.771315 0.378131 0.0 
0.869797 0.35349 0.0 
0 0 0.0 
0.336228 0.177223 0.0 
0 0 0.0 
0.742097 0.350453 0.0 
0.81244 0.593419 0.0 
0.588617 0.405065 0.0 
0.894793 0.435145 0.0 
0.352697 0.506695 0.0 
0 0 0.0 
0.757367 0.420916 0.0 
0.854857 0.308792 0.0 
0.863254 0.632009 0.0 
0.751501 0.397119 0.0 
0.27135 0.00307527 0.0 
0.963544 0.508866 0.0 
0.741819 0.222664 0.0 
1.03407 0.192303 0.0 
0.774412 0.0420132 0.0 
0.660964 0.0196204 0.0 
0.35351 0.206917 0.0 
0.344822 0.0127088 0.0 
1.12212 0.242686 0.0 
0.87269 0.284739 0.0 
0.24951 -0.00115016 0.0 
0.829356 0.646203 0.0 
1.05885 0.568446 0.0 
0 0 0.0 
0.433695 0.0301924 0.0 
0.364027 0.49927 0.0 
0.239139 0.291736 0.0 
0.572962 0.0537328 0.0 
1.17072 0.248816 0.0 
0.975084 0.62755 0.0 
0.740983 0.491596 0.0 
0.66294 0.139308 0.0 
0.660398 0.152206 0.0 
0.771482 0.677241 0.0 
0.498741 0.191136 0.0 
1.02802 0.373774 0.0 
1.19516 0.440813 0.0 
0.865145 0.323093 0.0 
1.09255 0.190191 0.0 
0 0 0.0 
0.68877 0.650085 0.0 
1.24044 0.207527 0.0 
1.15105 0.46734 0.0 
0.837059 0.24325 0.0 
0.944758 0.491887 0.0 
0.718788 0.230921 0.0 
0.602613 0.209401 0.0 
0.491306 0.616047 0.0 
0.531928 0.231186 0.0 
0.902266 0.338439 0.0 
1.00887 0.588373 0.0 
1.1264 0.178643 0.0 
0.941341 0.581788 0.0 
0.785224 0.3639 0.0 
0.879797 0.335954 0.0 
0.858958 0.423742 0.0 
1.06981 0.50453 0.0 
0.104699 -0.00307754 0.0 
0.936413 0.404824 0.0 
0 0 0.0 
0.486844 0.548535 0.0 
1.14055 0.488756 0.0 
1.00735 0.42572 0.0 
0.65563 0.291193 0.0 
0.135803 -0.00509059 0.0 
0.861195 0.664676 0.0 
0.983039 0.492099 0.0 
1.07816 0.208464 0.0 
0 0 0.0 
0 0 0.0 
0.710034 0.56365 0.0 
0.608195 0.450384 0.0 
0.91385 0.262246 0.0 
0.899982 0.227394 0.0 
0.662738 0.252088 0.0 
0 0 0.0 
0.747904 0.315206 0.0 
0.631251 0.446665 0.0 
0.865084 0.22457 0.0 
0.560501 0.413548 0.0 
1.09582 0.176417 0.0 
0.896798 0.256373 0.0 
0.295375 0.333161 0.0 
1.22852 0.212448 0.0 
0.854642 0.291567 0.0 
1.15064 0.215508 0.0 
0.863949 0.284428 0.0 
0 0 0.0 
1.22526 0.134466 0.0 
0.196836 0.00330477 0.0 
0.814436 0.219208 0.0 
0.926623 0.279642 0.0 
0.259898 0.0671271 0.0 
1.08511 0.165466 0.0 
0.460005 0.616882 0.0 
0.313116 0.265462 0.0 
0 0 0.0 
0.863717 0.271698 0.0 
0.767037 0.363623 0.0 
0.746233 0.135124 0.0 
0 0 0.0 
0 0 0.0 
0.733857 0.322056 0.0 
0.558963 0.0631758 0.0 
1.21935 0.398551 0.0 
0.0508872 -0.004174 0.0 
0.871163 0.19641 0.0 
1.00521 0.272469 0.0 
0.922737 0.417286 0.0 
0 0 0.0 
0.733314 0.0322541 0.0 
1.08303 0.540112 0.0 
0.694674 0.428153 0.0 
0.897714 0.371504 0.0 
0.46413 0.44436 0.0 
0.872724 0.3036 0.0 
1.12218 0.420507 0.0 
0.597602 0.617465 0.0 
0.848576 0.516459 0.0 
0.569174 0.547568 0.0 
1.23041 0.296784 0.0 
1.10126 0.262745 0.0 
0.745785 0.586486 0.0 
0.110349 -0.00273205 0.0 
1.23372 0.315447 0.0 
0.909195 0.241756 0.0 
0.867574 0.574489 0.0 
0.0713762 -0.00367172 0.0 
0 0 0.0 
0 0 0.0 
0.757862 0.0330836 0.0 
0.798663 0.439072 0.0 
0.828553 0.0394678 0.0 
0 0 0.0 
1.0965 0.303833 0.0 
0.741061 0.0854032 0.0 
0.140543 -0.00358169 0.0 
0.717269 0.322984 0.0 
0.559551 0.640726 0.0 
0.696821 0.081133 0.0 
0.656037 0.392854 0.0 
0 0 0.0 
0.732448 0.266012 0.0 
0.67747 0.36775 0.0 
0 0 0.0 
1.20653 0.104573 0.0 
0.578689 0.474464 0.0 
0.610028 0.0911724 0.0 
1.19239 0.421063 0.0 
1.20749 0.0844583 0.0 
1.09184 0.517655 0.0 
1.2282 0.146388 0.0 
0.180886 -0.00278083 0.0 
0.639114 0.0534272 0.0 
0.936614 0.498238 0.0 
0.792492 0.225168 0.0 
0.232212 -0.00121808 0.0 
0.390841 0.404872 0.0 
0.658008 0.342038 0.0 
1.13005 0.329047 0.0 
0 0 0.0 
0.834927 0.501858 0.0 
0 0 0.0 
0.947275 0.324843 0.0 
0 0 0.0 
0.454941 0.0107576 0.0 
0.0836987 -0.00379041 0.0 
0.565422 0.0230348 0.0 
0.400198 0.500034 0.0 
0.882011 0.363998 0.0 
0.712249 0.479027 0.0 
0 0 0.0 
0.765783 0.3281 0.0 
1.25135 0.265755 0.0 
0.735922 0.444953 0.0 
0.678677 0.161232 0.0 
0.742312 0.546388 0.0 
0.857363 0.449488 0.0 
0.637175 0.65523 0.0 
0.530005 0.0141203 0.0 
0.837391 0.303675 0.0 
0.566224 0.483992 0.0 
0.884883 0.151045 0.0 
0.542378 0.220836 0.0 
0 0 0.0 
0.426811 0.0324743 0.0 
0 0 0.0 
1.00968 0.419706 0.0 
0.999005 0.458896 0.0 
0.43949 0.183393 0.0 
0.634325 0.296901 0.0 
0.581314 0.659573 0.0 
0.737644 0.661008 0.0 
0.823089 0.2564 0.0 
0.789724 0.659963 0.0 
0.0019573 -4.17296e-06 0.0 
0.553197 0.0173682 0.0 
0.43803 0.0381751 0.0 
0.8819 0.318364 0.0 
0.879556 0.113476 0.0 
0.045221 -0.00125573 0.0 
0.568348 0.20618 0.0 
0.787499 0.340499 0.0 
0.954504 0.438873 0.0 
0 0 0.0 
0.955255 0.464938 0.0 
0.51364 0.163758 0.0 
0.259725 0.480786 0.0 
0.617055 0.381971 0.0 
0.883898 0.19911 0.0 
0.845144 0.276688 0.0 
0.843245 0.141741 0.0 
1.1006 0.465841 0.0 
0.984147 0.607299 0.0 
0.989071 0.267318 0.0 
0.0804142 0.243495 0.0 
0.550516 0.228057 0.0 
1.10883 0.313646 0.0 
0.0478234 -0.00468411 0.0 
0.782098 0.269262 0.0 
0.825982 0.108899 0.0 
0.4102 0.0145411 0.0 
0.953816 0.417995 0.0 
0.646638 0.671962 0.0 
0.621487 0.277929 0.0 
0.229238 -0.00120841 0.0 
0.289799 0.112168 0.0 
0.952341 0.309418 0.0 
0.930896 0.315927 0.0 
0.938264 0.477251 0.0 
0 0 0.0 
1.09233 0.558744 0.0 
0.75305 0.51254 0.0 
0.438399 0.395748 0.0 
0.905919 0.599184 0.0 
0.171813 0.317921 0.0 
0.385292 0.460893 0.0 
0 0 0.0 
0.744414 0.249894 0.0 
0.822442 0.316283 0.0 
0.210142 0.0395319 0.0 
0.82384 0.672879 0.0 
0.532994 0.0289406 0.0 
0.49254 0.0365785 0.0 
1.07143 0.392206 0.0 
0.981172 0.472366 0.0 
0.933159 0.0640187 0.0 
0 0 0.0 
0.824971 0.0924745 0.0 
0.0426476 -0.00368726 0.0 
0.0772135 -0.00386978 0.0 
1.21061 0.389439 0.0 
0 0 0.0 
0.0601823 -0.00230305 0.0 
1.02395 0.531844 0.0 
1.07261 0.574878 0.0 
1.06371 0.355332 0.0 
0.933285 0.364562 0.0 
0.742719 0.170715 0.0 
0.430037 0.00628196 0.0 
1.18371 0.140453 0.0 
0.870855 0.147863 0.0 
0.940573 0.446869 0.0 
0.457104 0.00947906 0.0 
0 0 0.0 
0.831493 0.222818 0.0 
1.2056 0.219938 0.0 
0.967878 0.427303 0.0 
0.958833 0.622186 0.0 
0.406986 0.00660631 0.0 
0.572498 0.260864 0.0 
1.05738 0.379147 0.0 
0.941804 0.382277 0.0 
1.09203 0.230881 0.0 
0.913797 0.056961 0.0 
1.07784 0.196577 0.0 
0.957102 0.173433 0.0 
1.08603 0.276114 0.0 
0.879742 0.124284 0.0 
0 0 0.0 
0.922158 0.235877 0.0 
0.897632 0.654438 0.0 
1.10327 0.289623 0.0 
0.888692 0.117583 0.0 
0.996925 0.242395 0.0 
0.0297596 -0.00111085 0.0 
0.986443 0.250849 0.0 
0.938305 0.516037 0.0 
1.0989 0.53472 0.0 
0.784217 0.249584 0.0 
0.835729 0.592891 0.0 
0.937511 0.524575 0.0 
0 0 0.0 
0.967415 0.535106 0.0 
1.11153 0.326265 0.0 
1.02418 0.604569 0.0 
0 0 0.0 
1.23683 0.224393 0.0 
0.794537 0.24013 0.0 
0.958873 0.486137 0.0 
0 0 0.0 
0.976316 0.278428 0.0 
0.856124 0.638414 0.0 
0.85978 0.429696 0.0 
1.04744 0.520311 0.0 
0.0213692 -0.00100224 0.0 
0 0 0.0 
0.676243 0.287835 0.0 
0 0 0.0 
0.934112 0.427855 0.0 
0.558468 0.301725 0.0 
0.997521 0.513557 0.0 
0.868881 0.208267 0.0 
1.13524 0.293104 0.0 
0.749194 0.264695 0.0 
0.610706 0.301276 0.0 
0.764166 0.25239 0.0 
0.533668 0.243182 0.0 
0.610027 0.263335 0.0 
0.314141 0.00149123 0.0 
0.926325 0.246048 0.0 
0.58536 0.257035 0.0 
1.23884 0.164704 0.0 
0.645059 0.273408 0.0 
0.771914 0.47984 0.0 
1.19961 0.120239 0.0 
1.18083 0.113619 0.0 
1.21193 0.193618 0.0 
0.8547 0.212728 0.0 
1.11596 0.34273 0.0 
0.817018 0.236181 0.0 
0 0 0.0 
0.77309 0.031038 0.0 
0.474369 0.246623 0.0 
0.843132 0.217931 0.0 
1.19308 0.241096 0.0 
1.08876 0.247646 0.0 
0.629744 0.0182543 0.0 
1.14424 0.416027 0.0 
1.03871 0.35321 0.0 
1.19742 0.3726 0.0 
0.202985 0.000312311 0.0 
1.10708 0.249687 0.0 
1.18555 0.170654 0.0 
1.17746 0.447866 0.0 
0.906968 0.571549 0.0 
1.18533 0.10154 0.0 
0.931492 0.0851903 0.0 
1.02067 0.39803 0.0 
0.516525 0.223766 0.0 
1.22794 0.202656 0.0 
0.0919642 -0.00388782 0.0 
0.155769 0.00550586 0.0 
1.15075 0.173247 0.0 
0.885791 0.168741 0.0 
0.539038 0.175331 0.0 
0.92209 0.202088 0.0 
0.800717 0.308478 0.0 
0.917606 0.108173 0.0 
1.20463 0.0823875 0.0 
0.556883 0.155915 0.0 
0.989484 0.363107 0.0 
0.658487 0.0260867 0.0 
0.345569 0.00323728 0.0 
0.754514 0.194952 0.0 
1.11365 0.177626 0.0 
0.415082 0.0228605 0.0 
0.539149 0.332966 0.0 
0.34542 0.00266759 0.0 
1.22831 0.158304 0.0 
0.390071 0.00470537 0.0 
0.13839 -0.00318104 0.0 
0.176031 -0.0036507 0.0 
0.0541766 -0.00250798 0.0 
0.61956 0.0232158 0.0 
0.363831 0.0110984 0.0 
0.319336 0.000750461 0.0 
0.842892 0.0399003 0.0 
0.487552 0.0302359 0.0 
0.761268 0.043256 0.0 
0.159705 -0.00373954 0.0 
0.808108 0.0671139 0.0 
0.612855 0.0200434 0.0 
1.1933 0.0995364 0.0 
0.272538 -0.000669129 0.0 
1.22182 0.114789 0.0 
0.232304 -0.0019125 0.0 
0.0151386 -0.00207487 0.0 
0.866652 0.0401805 0.0 
0.950211 0.223163 0.0 
1.17173 0.207586 0.0 
0.513087 0.0146195 0.0 
0 0 0.0 
0.0499498 -0.00390542 0.0 
0.569196 0.0210878 0.0 
0.237464 -0.0019559 0.0 
0.806916 0.329166 0.0 
0 0 0.0 
0.815866 0.199304 0.0 
0.550604 0.197764 0.0 
0 0 0.0 
0.115685 -0.00483635 0.0 
0.559751 0.178759 0.0 
0.509715 0.0164744 0.0 
0.583594 0.148062 0.0 
0.596521 0.212671 0.0 
1.10511 0.23681 0.0 
1.2074 0.114111 0.0 
0.789217 0.149189 0.0 
0.00930161 -0.000850083 0.0 