<VTKFile type="UnstructuredGrid" version="0.1" byte_order="LittleEndian">
  <UnstructuredGrid>
    <Piece NumberOfPoints="16215" NumberOfCells="31861">
      <Points>
        <DataArray type = "Float64" NumberOfComponents="3" format="ascii">
1.26103 0.992361 0.0 
1.30971 0.999643 0.0 
1.30454 1.00929 0.0 
1.19501 0.995154 0.0 
1.19077 0.996365 0.0 
1.25101 0.986156 0.0 
1.21566 1.0031 0.0 
1.24678 0.985567 0.0 
1.23009 0.985945 0.0 
1.19493 0.988763 0.0 
1.24955 0.980142 0.0 
1.22714 1.005 0.0 
1.1986 0.988448 0.0 
1.20656 0.998491 0.0 
1.19971 0.986196 0.0 
1.24407 0.9884 0.0 
1.20876 0.989365 0.0 
1.22899 0.982778 0.0 
1.27528 0.99114 0.0 
1.23256 0.984562 0.0 
1.25265 1.00322 0.0 
1.19941 0.989385 0.0 
1.20077 0.993074 0.0 
1.20504 0.9944 0.0 
1.22237 1.00364 0.0 
1.17926 0.992037 0.0 
1.17748 1.00192 0.0 
1.191 0.998958 0.0 
1.22087 0.98634 0.0 
1.19912 0.994753 0.0 
1.18095 0.992131 0.0 
1.24502 0.982912 0.0 
1.24121 0.988003 0.0 
1.28004 0.998418 0.0 
1.26051 0.997657 0.0 
1.21395 0.984147 0.0 
1.21921 0.992702 0.0 
1.24068 0.985203 0.0 
1.19226 0.992465 0.0 
1.20876 0.983535 0.0 
1.18411 0.991893 0.0 
1.19698 0.989654 0.0 
1.2469 0.991755 0.0 
1.22842 0.981869 0.0 
1.24032 0.988609 0.0 
1.20906 0.994182 0.0 
1.25302 0.987579 0.0 
1.20266 1.00012 0.0 
1.23567 0.988055 0.0 
1.22694 0.980879 0.0 
1.19862 0.993448 0.0 
1.18447 0.991406 0.0 
1.25801 0.987145 0.0 
1.19574 0.993621 0.0 
1.18473 0.99077 0.0 
1.17847 0.991733 0.0 
1.23153 0.983916 0.0 
1.1941 1.00525 0.0 
1.23975 1.00231 0.0 
1.26469 0.994422 0.0 
1.27786 1.01484 0.0 
1.23741 1.0014 0.0 
1.22476 1.00389 0.0 
1.25607 0.992079 0.0 
1.20832 0.997286 0.0 
1.22574 0.985886 0.0 
1.20073 0.990343 0.0 
1.31729 1.00903 0.0 
1.22719 1.00115 0.0 
1.23538 0.984276 0.0 
1.21335 0.992822 0.0 
1.22183 0.993028 0.0 
1.22088 1.00313 0.0 
1.24815 0.989599 0.0 
1.20674 0.994072 0.0 
1.23506 0.996846 0.0 
1.22688 0.992507 0.0 
1.29442 1.00699 0.0 
1.19393 0.993028 0.0 
1.21009 0.996922 0.0 
1.1936 0.993697 0.0 
1.18979 0.997781 0.0 
1.2391 0.985623 0.0 
1.2254 1.00203 0.0 
1.1981 0.99538 0.0 
1.23567 0.999751 0.0 
1.21901 0.993226 0.0 
1.22006 1.00369 0.0 
1.20581 0.996438 0.0 
1.24424 0.987114 0.0 
1.22444 0.990686 0.0 
1.2137 0.982739 0.0 
1.2388 1.00547 0.0 
1.33045 1.00314 0.0 
1.20911 0.992849 0.0 
1.26649 1.00254 0.0 
1.2043 0.997124 0.0 
1.20603 0.984196 0.0 
1.25758 0.996334 0.0 
1.22608 0.982407 0.0 
1.26176 0.988785 0.0 
1.17838 0.988377 0.0 
1.24539 0.986413 0.0 
1.19207 0.999786 0.0 
1.24218 0.981248 0.0 
1.21033 0.984411 0.0 
1.23033 0.994667 0.0 
1.20507 0.984877 0.0 
1.22604 0.98358 0.0 
1.29471 0.995087 0.0 
1.23925 0.984661 0.0 
1.19534 1.00601 0.0 
1.22595 1.00055 0.0 
1.19853 0.996021 0.0 
1.24964 0.997896 0.0 
1.22292 0.986769 0.0 
1.2835 1.01134 0.0 
1.25853 0.986087 0.0 
1.23272 0.986063 0.0 
1.22564 0.979282 0.0 
1.21446 0.992093 0.0 
1.21261 0.99795 0.0 
1.22654 0.981559 0.0 
1.22645 0.991625 0.0 
1.18598 0.991873 0.0 
1.24669 0.997825 0.0 
1.22702 0.980107 0.0 
1.1849 0.994173 0.0 
1.24617 1.00341 0.0 
1.28795 1.01191 0.0 
1.20657 0.990032 0.0 
1.25683 1.00913 0.0 
1.31732 1.00413 0.0 
1.24456 0.994774 0.0 
1.22472 0.985013 0.0 
1.18887 0.998395 0.0 
1.27004 1.01068 0.0 
1.24367 0.981534 0.0 
1.23367 1.00111 0.0 
1.21572 0.986282 0.0 
1.21678 0.992948 0.0 
1.1983 0.987396 0.0 
1.28303 1.01232 0.0 
1.22371 0.984327 0.0 
1.18859 0.988037 0.0 
1.21118 0.990498 0.0 
1.25554 0.998689 0.0 
1.21076 0.99857 0.0 
1.22445 1.00546 0.0 
1.21392 0.990065 0.0 
1.22373 0.979578 0.0 
1.20566 0.989409 0.0 
1.18717 1.00493 0.0 
1.20008 1.00095 0.0 
1.23916 0.986205 0.0 
1.25986 1.01264 0.0 
1.19881 1.00275 0.0 
1.24153 1.00188 0.0 
1.23098 0.989408 0.0 
1.22862 0.996185 0.0 
1.26869 1.01405 0.0 
1.20027 0.996102 0.0 
1.19007 0.999766 0.0 
1.20259 0.98963 0.0 
1.24659 0.999405 0.0 
1.21124 1.00106 0.0 
1.28309 0.998966 0.0 
1.22984 0.99015 0.0 
1.28588 0.995611 0.0 
1.23621 1.00086 0.0 
1.23166 0.985418 0.0 
1.22939 0.982327 0.0 
1.2608 0.991627 0.0 
1.19745 0.994807 0.0 
1.29489 0.9938 0.0 
1.18741 0.992259 0.0 
1.18792 1.00135 0.0 
1.20862 0.985637 0.0 
1.31709 1.00966 0.0 
1.21003 0.987024 0.0 
1.2309 0.981776 0.0 
1.18995 0.992665 0.0 
1.20596 0.99773 0.0 
1.22126 0.99434 0.0 
1.16561 1.00164 0.0 
1.22933 1.00362 0.0 
1.18833 0.989488 0.0 
1.22546 0.996749 0.0 
1.22705 0.985234 0.0 
1.22373 0.993864 0.0 
1.30393 0.996346 0.0 
1.25881 1.00376 0.0 
1.21714 0.993756 0.0 
1.21333 0.995944 0.0 
1.25603 1.00673 0.0 
1.21483 0.985715 0.0 
1.23702 1.00716 0.0 
1.23038 0.987176 0.0 
1.20612 0.992392 0.0 
1.23054 0.98797 0.0 
1.24107 0.996021 0.0 
1.25059 0.9901 0.0 
1.24106 1.00119 0.0 
1.21192 0.989554 0.0 
1.31587 1.00477 0.0 
1.188 0.991717 0.0 
1.2533 1.00777 0.0 
1.24221 1.01086 0.0 
1.25076 1.00215 0.0 
1.22036 0.990704 0.0 
1.21373 0.988181 0.0 
1.23921 0.987718 0.0 
1.21916 0.984714 0.0 
1.23498 0.985027 0.0 
1.22579 0.98719 0.0 
1.24441 0.979134 0.0 
1.22802 0.990681 0.0 
1.21307 0.993654 0.0 
1.24294 0.989583 0.0 
1.18746 0.994036 0.0 
1.31375 1.00725 0.0 
1.23796 1.00448 0.0 
1.1865 0.997942 0.0 
1.24476 0.996383 0.0 
1.22009 0.993689 0.0 
1.21975 0.991526 0.0 
1.28108 1.0139 0.0 
1.19251 0.989811 0.0 
1.23835 0.98809 0.0 
1.23859 0.996547 0.0 
1.24096 0.9954 0.0 
1.16887 0.999929 0.0 
1.2317 0.983257 0.0 
1.24147 1.00413 0.0 
1.23695 0.986774 0.0 
1.23171 1.00234 0.0 
1.24295 0.986504 0.0 
1.18682 0.988504 0.0 
1.25646 1.00766 0.0 
1.19927 0.998028 0.0 
1.22835 1.00065 0.0 
1.18316 0.993157 0.0 
1.26324 0.992475 0.0 
1.22527 1.00136 0.0 
1.24534 0.985244 0.0 
1.25363 1.01241 0.0 
1.19559 0.987458 0.0 
1.29203 1.01547 0.0 
1.22554 0.99313 0.0 
1.22045 0.982397 0.0 
1.21217 0.995332 0.0 
1.24117 0.999396 0.0 
1.18306 0.992276 0.0 
1.19735 0.994151 0.0 
1.20999 0.987865 0.0 
1.19919 0.990896 0.0 
1.33686 0.999612 0.0 
1.23971 1.00303 0.0 
1.26153 1.00746 0.0 
1.19737 1.00461 0.0 
1.28468 1.01301 0.0 
1.22547 0.980605 0.0 
1.25988 0.993224 0.0 
1.23533 0.986178 0.0 
1.31664 0.999048 0.0 
1.18647 0.989073 0.0 
1.1952 0.994146 0.0 
1.20023 0.98558 0.0 
1.24442 1.00746 0.0 
1.24598 0.988964 0.0 
1.2726 1.01386 0.0 
1.26166 0.990658 0.0 
1.25885 0.994705 0.0 
1.26429 0.989516 0.0 
1.21485 0.994921 0.0 
1.21097 0.983022 0.0 
1.21249 1.00034 0.0 
1.19462 0.992315 0.0 
1.19693 0.995786 0.0 
1.23865 0.98188 0.0 
1.22762 0.98296 0.0 
1.19147 0.987692 0.0 
1.23357 0.990757 0.0 
1.2078 0.996011 0.0 
1.28649 0.993776 0.0 
1.16493 1.00247 0.0 
1.19162 0.991231 0.0 
1.24793 1.0031 0.0 
1.25461 0.993742 0.0 
1.18632 0.996051 0.0 
1.21672 0.990291 0.0 
1.27002 0.982134 0.0 
1.24053 1.00047 0.0 
1.25369 0.992923 0.0 
1.19115 1.00516 0.0 
1.19939 0.994116 0.0 
1.21196 0.996772 0.0 
1.23382 0.993497 0.0 
1.17969 1.00297 0.0 
1.191 0.988497 0.0 
1.24831 0.988973 0.0 
1.24969 0.988608 0.0 
1.24111 0.99011 0.0 
1.19041 0.990758 0.0 
1.26988 0.992124 0.0 
1.22083 0.992192 0.0 
1.19771 0.999116 0.0 
1.24503 0.991034 0.0 
1.25463 0.989058 0.0 
1.20388 0.98697 0.0 
1.23293 0.988534 0.0 
1.24198 0.981948 0.0 
1.2499 0.994487 0.0 
1.26466 0.991299 0.0 
1.18806 0.992821 0.0 
1.19463 0.990601 0.0 
1.23128 0.993809 0.0 
1.18988 0.995999 0.0 
1.18159 0.992805 0.0 
1.23864 1.00003 0.0 
1.2507 0.98934 0.0 
1.25354 1.00244 0.0 
1.22588 0.98802 0.0 
1.18696 0.987479 0.0 
1.23419 1.00351 0.0 
1.22457 0.988623 0.0 
1.20514 1.00398 0.0 
1.18604 0.989703 0.0 
1.23152 0.991132 0.0 
1.17021 1.00383 0.0 
1.2399 0.997133 0.0 
1.244 1.00377 0.0 
1.19985 1.00342 0.0 
1.21739 0.99116 0.0 
1.23486 0.983474 0.0 
1.21341 0.997249 0.0 
1.24834 0.985325 0.0 
1.29298 0.994513 0.0 
1.22391 1.00719 0.0 
1.24425 0.99182 0.0 
1.19449 0.987905 0.0 
1.22936 1.00028 0.0 
1.2585 1.00272 0.0 
1.23617 0.995811 0.0 
1.22372 0.997801 0.0 
1.18749 0.996324 0.0 
1.24439 0.997809 0.0 
1.23389 0.986769 0.0 
1.23206 0.996551 0.0 
1.23236 1.00084 0.0 
1.24968 0.991647 0.0 
1.22598 0.9959 0.0 
1.24322 0.990216 0.0 
1.25647 0.994513 0.0 
1.25717 0.988439 0.0 
1.20178 0.991988 0.0 
1.21386 0.983419 0.0 
1.28015 0.984978 0.0 
1.2081 0.996641 0.0 
1.30202 1.01113 0.0 
1.24203 0.994599 0.0 
1.21524 0.989175 0.0 
1.19966 0.989798 0.0 
1.23458 0.989222 0.0 
1.30073 0.9948 0.0 
1.23109 0.99559 0.0 
1.18891 0.996537 0.0 
1.20523 0.995092 0.0 
1.21317 0.998712 0.0 
1.30808 1.00806 0.0 
1.18315 0.994587 0.0 
1.25053 0.985425 0.0 
1.23379 0.990074 0.0 
1.23358 0.982778 0.0 
1.26257 0.999415 0.0 
1.19461 0.991704 0.0 
1.20443 0.998633 0.0 
1.22262 0.989965 0.0 
1.28851 0.993118 0.0 
1.24305 0.988982 0.0 
1.2498 0.987486 0.0 
1.21199 0.985721 0.0 
1.20291 0.993378 0.0 
1.25596 0.991306 0.0 
1.18582 0.990241 0.0 
1.18477 0.988627 0.0 
1.25897 1.00704 0.0 
1.20288 1.00221 0.0 
1.23568 1.00541 0.0 
1.18688 0.986821 0.0 
1.20764 0.993422 0.0 
1.22007 0.986955 0.0 
1.21041 1.00012 0.0 
1.23099 0.986478 0.0 
1.25683 0.990052 0.0 
1.23634 1.00625 0.0 
1.1876 0.990014 0.0 
1.3172 0.998046 0.0 
1.24235 0.990955 0.0 
1.30148 0.993963 0.0 
1.18689 0.993282 0.0 
1.20644 0.988062 0.0 
1.20772 0.984956 0.0 
1.24095 0.997657 0.0 
1.23112 1.0081 0.0 
1.1896 0.987298 0.0 
1.2371 0.994402 0.0 
1.20696 0.986801 0.0 
1.2145 0.982117 0.0 
1.23966 1.00635 0.0 
1.19145 0.995048 0.0 
1.2406 1.00731 0.0 
1.21912 0.988353 0.0 
1.20616 0.995753 0.0 
1.223 0.986006 0.0 
1.1793 0.989649 0.0 
1.20072 0.997545 0.0 
1.23916 0.991772 0.0 
1.26639 0.989371 0.0 
1.25867 0.990096 0.0 
1.23783 0.99882 0.0 
1.21867 0.983108 0.0 
1.24798 1.00964 0.0 
1.23251 0.99921 0.0 
1.25461 0.996056 0.0 
1.21166 0.983729 0.0 
1.17826 0.99127 0.0 
1.1751 0.990769 0.0 
1.25851 0.991784 0.0 
1.2986 1.00721 0.0 
1.18231 0.993655 0.0 
1.22939 0.979911 0.0 
1.21509 0.993937 0.0 
1.2442 0.993874 0.0 
1.25325 0.990714 0.0 
1.24114 0.992715 0.0 
1.22322 0.994862 0.0 
1.21011 0.997735 0.0 
1.24883 0.98589 0.0 
1.20014 0.999418 0.0 
1.21249 0.999455 0.0 
1.22082 1.0019 0.0 
1.19438 0.991082 0.0 
1.19639 0.992893 0.0 
1.25406 1.00962 0.0 
1.23756 0.997018 0.0 
1.24294 0.984911 0.0 
1.31261 0.992662 0.0 
1.23205 0.982576 0.0 
1.22052 0.995038 0.0 
1.27139 0.990719 0.0 
1.18685 0.990627 0.0 
[...]
<PointData>
  <DataArray type = "Float64" Name="Vitesse" NumberOfComponents="3" format="ascii">
0.00884556 0.0178325 0.0 
0.161376 -0.109392 0.0 
0.333263 -0.108424 0.0 
-0.0277361 0.0734716 0.0 
-0.0603925 0.041268 0.0 
0.0554523 0.0712723 0.0 
-0.0765494 0.143556 0.0 
0.0814483 0.0852128 0.0 
0.155885 0.119915 0.0 
0.212101 0.0653637 0.0 
0.321446 0.0534701 0.0 
0.0116681 0.119004 0.0 
0.218951 0.0849518 0.0 
-0.098195 0.137943 0.0 
0.322085 0.0838164 0.0 
0.0135964 0.100301 0.0 
0.143113 0.126635 0.0 
0.319334 0.0969568 0.0 
0.0509458 -0.0351532 0.0 
0.201066 0.107917 0.0 
0.108931 0.0234369 0.0 
0.175586 0.0913969 0.0 
0.0303546 0.107111 0.0 
-0.0178684 0.130024 0.0 
-0.0352126 0.136713 0.0 
0.0759844 -0.0556789 0.0 
-0.167031 -0.0696876 0.0 
-0.119525 0.042236 0.0 
0.203502 0.125268 0.0 
-0.0195798 0.100328 0.0 
0.0744882 -0.0418328 0.0 
0.199143 0.0776135 0.0 
0.0282673 0.108867 0.0 
0.103154 -0.0693027 0.0 
0.045901 0.00538053 0.0 
0.356068 0.106875 0.0 
-0.0110431 0.158619 0.0 
0.121029 0.0993479 0.0 
0.0634617 0.0512975 0.0 
0.416704 0.0973981 0.0 
0.0858665 -0.0147744 0.0 
0.169657 0.0791966 0.0 
-0.0229319 0.0872176 0.0 
0.372303 0.0903637 0.0 
0.0161037 0.113192 0.0 
-0.020147 0.144461 0.0 
0.0252774 0.0632859 0.0 
-0.120726 0.118409 0.0 
0.045389 0.123937 0.0 
0.436256 0.0838742 0.0 
0.0215696 0.0957245 0.0 
0.104626 -0.0114516 0.0 
0.0364802 0.0428692 0.0 
0.019541 0.0774392 0.0 
0.129703 -0.00887878 0.0 
0.0859399 -0.0617085 0.0 
0.240671 0.103922 0.0 
-0.163743 0.0526059 0.0 
0.0373576 0.0872491 0.0 
0.0272327 -0.00439641 0.0 
0.484308 -0.0925219 0.0 
0.0127544 0.101732 0.0 
-0.0184658 0.130981 0.0 
-0.0045637 0.041939 0.0 
-0.0812948 0.14509 0.0 
0.189533 0.122003 0.0 
0.13193 0.100603 0.0 
0.312832 -0.105541 0.0 
-0.0380963 0.139606 0.0 
0.19451 0.10259 0.0 
0.00441542 0.151513 0.0 
-0.0254 0.159862 0.0 
-0.0492283 0.141528 0.0 
-0.00603569 0.0839179 0.0 
-0.0123305 0.136164 0.0 
-0.0425072 0.129177 0.0 
-0.0275754 0.155008 0.0 
0.277403 -0.104729 0.0 
0.0416864 0.0640899 0.0 
-0.0758907 0.150502 0.0 
0.0189332 0.0621894 0.0 
-0.0954694 0.0327955 0.0 
0.112076 0.10508 0.0 
-0.0375035 0.139656 0.0 
-0.0362192 0.094606 0.0 
-0.015902 0.116266 0.0 
-0.0219029 0.15987 0.0 
-0.0476012 0.139262 0.0 
-0.066454 0.135702 0.0 
0.0432894 0.0970914 0.0 
0.0199645 0.15132 0.0 
0.428982 0.0979908 0.0 
0.0872962 0.0752496 0.0 
0.205237 -0.0965943 0.0 
0.0169591 0.140998 0.0 
0.140342 -0.0333776 0.0 
-0.0790292 0.129162 0.0 
0.39727 0.0960556 0.0 
0.0225605 0.0228503 0.0 
0.361062 0.0956175 0.0 
0.0225738 0.0238435 0.0 
0.21734 -0.0549703 0.0 
0.060255 0.0914708 0.0 
-0.132982 0.050121 0.0 
0.304215 0.0721827 0.0 
0.364171 0.104526 0.0 
-0.0523767 0.149162 0.0 
0.367345 0.0967784 0.0 
0.300105 0.104516 0.0 
0.111366 -0.0919377 0.0 
0.151402 0.0994285 0.0 
-0.156571 0.0578725 0.0 
-0.0491082 0.145229 0.0 
-0.0530788 0.0976818 0.0 
0.0148467 0.0573703 0.0 
0.17005 0.128665 0.0 
0.389717 -0.0947494 0.0 
0.0565158 0.0419898 0.0 
0.132638 0.118172 0.0 
0.52975 0.0738188 0.0 
0.0213359 0.150901 0.0 
-0.0868209 0.156197 0.0 
0.402703 0.0890758 0.0 
-0.0103438 0.153526 0.0 
0.0873968 0.000911816 0.0 
0.00386915 0.0723848 0.0 
0.476927 0.0784483 0.0 
0.00551202 -0.00880413 0.0 
0.0855083 0.0527739 0.0 
0.410253 -0.100073 0.0 
0.125392 0.12323 0.0 
0.256035 -0.018314 0.0 
0.21273 -0.109379 0.0 
-0.0263912 0.0920793 0.0 
0.238327 0.115847 0.0 
-0.109446 0.0248815 0.0 
0.343865 -0.0668657 0.0 
0.27899 0.0716209 0.0 
-0.00837117 0.11834 0.0 
0.240792 0.121858 0.0 
-0.00990742 0.157372 0.0 
0.268304 0.0806767 0.0 
0.417291 -0.0952194 0.0 
0.279728 0.110973 0.0 
0.249518 0.0224885 0.0 
0.0880375 0.137898 0.0 
0.0443684 0.0255182 0.0 
-0.0941417 0.151437 0.0 
0.0021449 0.12238 0.0 
0.0911414 0.141249 0.0 
0.526753 0.0768938 0.0 
0.15433 0.117669 0.0 
-0.182003 0.00364548 0.0 
-0.133447 0.102767 0.0 
0.0906127 0.107549 0.0 
0.362334 -0.0440261 0.0 
-0.147062 0.0908371 0.0 
0.0386812 0.081156 0.0 
0.0264231 0.139279 0.0 
-0.0588611 0.151867 0.0 
0.436534 -0.0736425 0.0 
-0.0560577 0.10801 0.0 
-0.134522 0.0340347 0.0 
0.156002 0.107053 0.0 
0.023025 0.0671424 0.0 
-0.103118 0.146813 0.0 
0.115863 -0.0783487 0.0 
0.0116629 0.143918 0.0 
0.090846 -0.0778732 0.0 
7.19905e-05 0.10918 0.0 
0.167894 0.114932 0.0 
0.340338 0.0932218 0.0 
0.00773365 0.0209156 0.0 
-0.0194051 0.0899076 0.0 
0.111037 -0.0883383 0.0 
0.0729844 0.0127322 0.0 
-0.159131 0.0146768 0.0 
0.312632 0.108245 0.0 
0.329124 -0.104885 0.0 
0.239231 0.11801 0.0 
0.358508 0.0879024 0.0 
0.0574292 0.0334686 0.0 
-0.0886007 0.136317 0.0 
-0.0463835 0.16244 0.0 
-0.131283 -0.122248 0.0 
0.00369324 0.12077 0.0 
0.184596 0.0202374 0.0 
-0.0642061 0.157686 0.0 
0.210165 0.116672 0.0 
-0.0427454 0.160497 0.0 
0.136989 -0.102349 0.0 
0.141773 -0.00582872 0.0 
-0.028795 0.159817 0.0 
-0.0626508 0.157764 0.0 
0.195522 -0.00514255 0.0 
0.273145 0.117371 0.0 
0.109715 0.0726649 0.0 
0.1032 0.127905 0.0 
0.0405257 0.129533 0.0 
0.0733517 0.132513 0.0 
-0.0296136 0.105185 0.0 
-0.00834926 0.0720727 0.0 
0.026054 0.0863672 0.0 
0.120791 0.134968 0.0 
0.223439 -0.109971 0.0 
0.0935737 0.0176087 0.0 
0.207883 0.00179391 0.0 
0.222285 0.030402 0.0 
0.0820231 0.0363962 0.0 
0.0379639 0.151313 0.0 
0.167736 0.13108 0.0 
0.0413818 0.114005 0.0 
0.293384 0.113437 0.0 
0.162259 0.108342 0.0 
0.132582 0.131211 0.0 
0.410448 0.0548971 0.0 
0.00582826 0.148584 0.0 
-0.016285 0.15345 0.0 
-0.0055035 0.105457 0.0 
0.0101809 0.0132908 0.0 
0.273401 -0.109231 0.0 
0.0647654 0.0840843 0.0 
-0.100374 0.00470391 0.0 
-0.0158857 0.0865918 0.0 
-0.0337404 0.161554 0.0 
0.0172453 0.154458 0.0 
0.461647 -0.0950854 0.0 
0.169082 0.0507807 0.0 
0.0341688 0.117572 0.0 
-0.033513 0.114944 0.0 
-0.0329496 0.107367 0.0 
-0.125226 -0.122382 0.0 
0.273113 0.0987772 0.0 
0.0764167 0.0707632 0.0 
0.0808308 0.115266 0.0 
-0.00178358 0.119622 0.0 
0.06501 0.0990957 0.0 
0.227232 0.00922177 0.0 
0.218758 -0.0106816 0.0 
-0.096624 0.102062 0.0 
-0.0379242 0.138637 0.0 
0.0394331 -0.0236021 0.0 
0.0152545 0.00741709 0.0 
-0.0449275 0.143173 0.0 
0.0989167 0.087843 0.0 
0.326811 -0.0217212 0.0 
0.271185 0.0670594 0.0 
0.520076 -0.104605 0.0 
-0.0349278 0.157893 0.0 
0.402328 0.0973867 0.0 
-0.0509961 0.154828 0.0 
0.00214372 0.0932437 0.0 
0.0709961 -0.0239532 0.0 
0.000428309 0.0886973 0.0 
0.201347 0.122377 0.0 
0.113458 0.094027 0.0 
0.206918 -0.0819165 0.0 
0.048873 0.0839591 0.0 
0.23322 -0.0294608 0.0 
-0.15336 0.0758674 0.0 
0.439142 -0.0977435 0.0 
0.46118 0.0828522 0.0 
0.0077919 0.0207731 0.0 
0.111683 0.115048 0.0 
0.168932 -0.106027 0.0 
0.201861 0.0061686 0.0 
0.00289268 0.0740919 0.0 
0.350971 0.0841634 0.0 
0.157576 0.0408872 0.0 
0.0019247 0.0935893 0.0 
0.442531 -0.0816065 0.0 
0.0116716 0.0195153 0.0 
0.0126186 0.0215186 0.0 
0.0238078 0.011186 0.0 
-0.0469295 0.159174 0.0 
0.430756 0.0974242 0.0 
-0.0986924 0.151196 0.0 
0.0666778 0.0682057 0.0 
-0.0463648 0.0871452 0.0 
0.294638 0.0814603 0.0 
0.320194 0.0990306 0.0 
0.264871 0.0422366 0.0 
-0.0113117 0.137572 0.0 
-0.0593595 0.142967 0.0 
0.0858413 -0.0742396 0.0 
-0.13333 -0.118134 0.0 
0.111256 0.0455007 0.0 
0.0875106 0.045958 0.0 
-0.00465854 0.0447196 0.0 
-0.0519887 0.00340629 0.0 
0.069239 0.146559 0.0 
0.184621 0.00754225 0.0 
0.0135921 0.0918848 0.0 
-0.00950789 0.0514296 0.0 
-0.173046 0.0326132 0.0 
-0.000748465 0.101096 0.0 
-0.073992 0.155311 0.0 
-0.0444325 0.139476 0.0 
-0.178106 -0.0525746 0.0 
0.227936 0.039422 0.0 
0.00160336 0.0835323 0.0 
0.00736347 0.0775054 0.0 
-0.0128012 0.113027 0.0 
0.130909 0.0361347 0.0 
0.0337963 -0.0190098 0.0 
-0.00443176 0.15746 0.0 
-0.116166 0.0914926 0.0 
-0.0214396 0.0967396 0.0 
0.0057069 0.0549678 0.0 
0.270386 0.102094 0.0 
0.0425535 0.131982 0.0 
0.267577 0.0772229 0.0 
-0.0137562 0.0664686 0.0 
0.0185427 0.00454633 0.0 
0.0523208 0.0181877 0.0 
0.133658 0.0660133 0.0 
-0.0469758 0.147008 0.0 
-0.0502357 0.0338133 0.0 
0.0508861 -0.0369063 0.0 
-0.000158556 0.102269 0.0 
-0.00115637 0.0723618 0.0 
0.0976118 0.0222689 0.0 
0.0991053 0.13656 0.0 
0.274473 0.0109541 0.0 
0.0285337 0.104333 0.0 
0.0849048 0.140791 0.0 
-0.122195 0.116645 0.0 
0.174532 0.00242084 0.0 
-0.0138898 0.143634 0.0 
-0.163641 -0.104594 0.0 
-0.0253559 0.107253 0.0 
0.0822606 0.0611289 0.0 
-0.144943 0.094528 0.0 
0.0375137 0.151204 0.0 
0.237918 0.0974893 0.0 
-0.0793809 0.15803 0.0 
0.0855973 0.0792993 0.0 
0.105678 -0.0881268 0.0 
0.0265488 0.111826 0.0 
-0.0272503 0.0995433 0.0 
0.252354 0.0618348 0.0 
-0.0371152 0.137197 0.0 
0.120261 -0.00111272 0.0 
-0.043613 0.127432 0.0 
-0.0687216 0.158424 0.0 
-0.059404 0.0135692 0.0 
-0.00418261 0.0836715 0.0 
0.0969831 0.121166 0.0 
-0.051604 0.141099 0.0 
-0.0177233 0.124485 0.0 
-0.0182084 0.0740861 0.0 
-0.0614877 0.158102 0.0 
-0.0145635 0.104831 0.0 
0.00463519 0.0335508 0.0 
0.0165138 0.0445789 0.0 
0.0659158 0.109905 0.0 
0.393426 0.102322 0.0 
0.13419 -0.027119 0.0 
-0.071089 0.144334 0.0 
0.387408 -0.106808 0.0 
-0.0333814 0.10451 0.0 
0.118301 0.138991 0.0 
0.157217 0.0936504 0.0 
0.0176251 0.131017 0.0 
0.127691 -0.0966915 0.0 
-0.0539503 0.14594 0.0 
-0.0649638 0.0257299 0.0 
-0.0361444 0.131975 0.0 
-0.0915842 0.156123 0.0 
0.298136 -0.109619 0.0 
-0.00824089 -0.024197 0.0 
0.0768803 0.0721128 0.0 
0.000676234 0.135539 0.0 
0.284127 0.0933899 0.0 
0.0758341 -0.00898688 0.0 
0.0897029 0.067227 0.0 
-0.102204 0.129079 0.0 
0.0498964 0.14826 0.0 
0.0915242 -0.076311 0.0 
0.00392615 0.104652 0.0 
0.02646 0.0770215 0.0 
0.290028 0.114146 0.0 
0.0163094 0.118402 0.0 
-0.00414257 0.0443495 0.0 
0.151905 0.000289623 0.0 
0.219823 -0.00658455 0.0 
0.214121 -0.0182735 0.0 
-0.132559 0.114144 0.0 
0.0689092 0.0881469 0.0 
0.305724 0.0110347 0.0 
0.00387821 0.137872 0.0 
0.181378 0.129232 0.0 
-0.10382 0.14753 0.0 
0.127031 0.122777 0.0 
0.00242906 0.0430232 0.0 
0.0880922 0.0806634 0.0 
0.162128 0.0145264 0.0 
0.168009 -0.103884 0.0 
-0.0228924 0.108364 0.0 
0.130903 -0.0947067 0.0 
0.0359566 0.00843625 0.0 
0.209637 0.114592 0.0 
0.350785 0.103024 0.0 
-0.0174914 0.10067 0.0 
0.0915634 0.0877058 0.0 
0.284103 0.0296588 0.0 
-0.043872 0.126555 0.0 
0.265242 0.110352 0.0 
0.455893 0.0946666 0.0 
0.108938 0.0668084 0.0 
-0.0229318 0.0463764 0.0 
0.13356 0.0575819 0.0 
0.128527 0.137882 0.0 
-0.052605 0.136566 0.0 
0.203902 0.123305 0.0 
0.167072 -0.051274 0.0 
-0.0871256 0.110942 0.0 
-0.0309101 0.120873 0.0 
0.0306979 0.00296545 0.0 
0.00645648 0.0345073 0.0 
-0.0173088 0.110667 0.0 
0.377857 0.102211 0.0 
0.226102 0.0144982 0.0 
-0.0340704 0.130904 0.0 
0.0111354 0.0381949 0.0 
0.390818 0.102196 0.0 
0.10256 -0.0626511 0.0 
0.114378 -0.0851505 0.0 
0.00161423 0.0310988 0.0 
0.282472 -0.107778 0.0 
0.0219298 -0.0311762 0.0 
0.470822 0.0754283 0.0 
-0.0280091 0.157573 0.0 
-0.030045 0.0960524 0.0 
-0.00809473 0.0585781 0.0 
-0.0348587 0.112068 0.0 
-0.0544747 0.161796 0.0 
-0.086512 0.150326 0.0 
0.0669962 0.0787842 0.0 
-0.117107 0.10609 0.0 
-0.0964435 0.153503 0.0 
-0.0610863 0.147788 0.0 
0.11458 0.0651334 0.0 
0.0436441 0.0808363 0.0 
0.255927 -0.00970075 0.0 
-0.0339028 0.11824 0.0 
0.12165 0.092658 0.0 
0.175808 -0.0907146 0.0 
0.306439 0.0932244 0.0 
-0.0551709 0.163194 0.0 
0.0397137 -0.0202597 0.0 
0.136626 0.00837826 0.0 
0.046784 0.0394273 0.0 
0.15781 0.0657954 0.0 
0.0245195 -0.00175662 0.0 
0.234724 0.113763 0.0 
-0.058853 0.159559 0.0 
-0.025169 0.116795 0.0 
0.52702 -0.101155 0.0 
0.398622 0.0854889 0.0 
0.0167697 0.0232984 0.0 
0.0288222 -0.0036659 0.0 
0.160654 0.0485903 0.0 
-0.092305 0.152006 0.0 
0.0502878 0.0824674 0.0 
-0.00242118 0.0588648 0.0 
-0.0262172 0.0905343 0.0 
-0.042669 0.123688 0.0 
0.526538 -0.103551 0.0 
0.0298385 -0.0396788 0.0 
-0.0432151 0.129638 0.0 
-0.0172145 0.033447 0.0 
-0.101366 -0.0403969 0.0 
0.327007 0.108635 0.0 
0.0199391 0.12287 0.0 
0.205227 -0.0856455 0.0 
-0.0829051 0.150712 0.0 
0.0363041 -0.0196347 0.0 
-0.18329 -0.0537525 0.0 
0.210958 0.0526336 0.0 
0.033485 0.00902266 0.0 
0.00400454 0.0478343 0.0 
0.0199478 0.0102558 0.0 
0.0340709 0.0721732 0.0 
0.204012 0.127072 0.0 
0.0193063 0.00698405 0.0 
0.0552432 -0.043072 0.0 
0.0386251 0.0786746 0.0 
0.0779056 -0.0661825 0.0 
-0.0129631 0.110139 0.0 
0.034842 0.0669607 0.0 
-0.017165 0.148566 0.0 
-0.00243555 0.0474536 0.0 
0.127111 -0.0101052 0.0 
0.199207 -0.111257 0.0 
0.176724 -0.0176798 0.0 
0.156436 -0.0152308 0.0 
-0.116856 -0.0884644 0.0 
0.339678 -0.102417 0.0 
0.147857 -0.10315 0.0 
0.0601466 0.132382 0.0 
0.193588 0.0405921 0.0 
-0.0711075 0.110964 0.0 
-0.0180445 0.0844665 0.0 
0.193989 0.107984 0.0 
0.0888718 0.0575807 0.0 
0.00312204 0.110555 0.0 
-0.00792573 0.112913 0.0 
-0.0199559 0.0213216 0.0 
0.0071189 0.0790559 0.0 
0.43515 -0.0922283 0.0 
0.180159 0.130231 0.0 
0.0975897 -0.0629044 0.0 
0.144278 -0.0804549 0.0 
0.301781 -0.0216304 0.0 
0.293796 0.114343 0.0 
-0.029034 0.110038 0.0 
-0.0398689 0.137074 0.0 
-0.0547223 0.129158 0.0 
-0.113826 0.00164755 0.0 
-0.131622 -0.0185048 0.0 
0.0544236 0.0251288 0.0 
-0.0647011 0.150478 0.0 
-0.0801986 0.121686 0.0 
-0.115457 -0.112431 0.0 
-0.0186299 0.0716933 0.0 
0.258508 -0.0365863 0.0 
-0.0390125 0.119576 0.0 
-0.0422403 0.0487624 0.0 
0.0100672 0.155165 0.0 
0.0765897 0.104543 0.0 
-0.0450456 0.128364 0.0 
-0.040157 0.118141 0.0 
-0.0151286 0.0629728 0.0 
-0.0381703 0.139746 0.0 
0.00252123 0.0646016 0.0 
0.0775136 0.09767 0.0 
0.0376294 0.0573715 0.0 
-0.0158806 -0.0405404 0.0 
0.0390591 0.0468103 0.0 
-0.0627951 0.0544393 0.0 
0.105499 0.0611723 0.0 
-0.0121747 0.0794563 0.0 
-0.0832068 0.0978362 0.0 
0.141961 0.0223114 0.0 
0.435442 0.0797538 0.0 
0.255207 -0.0660618 0.0 
0.0680785 -0.00943709 0.0 
0.247203 0.0162838 0.0 
0.0575016 0.139732 0.0 
0.204168 0.125988 0.0 
0.057337 0.122226 0.0 
0.0290266 0.135898 0.0 
-0.047127 0.0198986 0.0 
0.0494602 0.14554 0.0 
0.013508 0.113653 0.0 
-0.0225176 0.124683 0.0 
0.0174387 0.0596628 0.0 
-0.0355196 -0.0311945 0.0 
0.000768177 0.0598994 0.0 
-0.0213286 0.0767384 0.0 
0.0627929 -0.0535471 0.0 
0.00502853 0.104277 0.0 
0.0304196 0.0218486 0.0 
-0.0508836 0.143149 0.0 
-0.0174194 0.15727 0.0 
0.345068 0.084343 0.0 
0.0497899 -0.0094535 0.0 
0.0637455 0.0839396 0.0 
0.0739187 0.126304 0.0 
0.0155977 0.070983 0.0 
0.30411 -0.107912 0.0 
0.120101 0.0186481 0.0 
-0.0484589 0.144106 0.0 
0.0627897 0.10712 0.0 
0.371647 -0.107047 0.0 
-0.0311532 0.100913 0.0 
0.0451299 0.0597989 0.0 
-0.0114808 0.057916 0.0 
0.294263 0.0979166 0.0 
-0.099788 -0.0180591 0.0 
-0.0119096 0.0693036 0.0 
0.258087 0.118909 0.0 
-0.0439036 0.16236 0.0 
0.317656 0.111558 0.0 
0.0975027 0.00384608 0.0 
0.108848 0.0775413 0.0 
-0.0361166 0.135521 0.0 
0.233847 0.054217 0.0 
0.046732 0.0563016 0.0 
-0.0986879 0.144467 0.0 
-0.0890689 0.158249 0.0 
0.0284321 0.124749 0.0 
-0.0325809 0.010271 0.0 
0.0224434 0.0141042 0.0 
-0.033528 0.132281 0.0 
-0.0256651 0.0867093 0.0 
0.0329503 0.0389728 0.0 
0.0720968 0.0955118 0.0 
0.244314 0.079645 0.0 
0.14789 -0.0332017 0.0 
0.0167933 0.0382469 0.0 
-0.0616886 0.142682 0.0 
-0.141459 -0.117896 0.0 
-0.0911074 0.143148 0.0 
0.353115 0.0656154 0.0 
0.0469716 0.0951805 0.0 
0.111348 -0.0978879 0.0 
0.143918 0.135591 0.0 
0.217731 -0.0797345 0.0 
-0.00394734 0.0530759 0.0 
-0.0277975 0.133567 0.0 
-0.0438841 0.115475 0.0 
0.0398754 0.107998 0.0 
0.0616977 0.145937 0.0 
0.0407074 0.104014 0.0 
0.165001 0.029189 0.0 
0.110158 0.116714 0.0 
0.011482 0.0161122 0.0 
-0.0462748 -0.0116723 0.0 
0.0150653 0.00778122 0.0 
-0.0288301 0.120971 0.0 
-0.0840407 0.127351 0.0 
0.00377891 0.0319668 0.0 
0.0977122 0.0137671 0.0 
0.440122 -0.102492 0.0 
0.00182827 0.0298762 0.0 
0.0734939 0.110668 0.0 
-0.0773847 0.0217303 0.0 
0.328713 0.0908833 0.0 
0.0638628 0.139018 0.0 
0.35641 -0.100073 0.0 
0.0738592 0.0305724 0.0 
-0.0399616 0.104604 0.0 
-0.0551202 0.1461 0.0 
-0.0395117 0.117256 0.0 
0.130599 -0.0902498 0.0 
-0.01293 0.119584 0.0 
0.0477154 -0.0365517 0.0 
-0.0126406 0.0900764 0.0 
0.283462 -0.0394592 0.0 
-0.00735619 0.10967 0.0 
0.250011 0.000256864 0.0 
0.381699 -0.105465 0.0 
0.334765 -0.0325556 0.0 
0.0301782 -0.0144981 0.0 
-0.0412496 0.132514 0.0 
-0.0491944 0.136443 0.0 
0.0306507 -0.0116578 0.0 
0.133497 0.134747 0.0 
-0.0121184 0.0976016 0.0 
-0.0052848 0.127421 0.0 
0.0136992 -0.0212128 0.0 
0.0429785 -0.0287046 0.0 
-0.0418849 0.160498 0.0 
0.185515 -0.109753 0.0 
0.296443 0.105607 0.0 
0.428802 -0.105963 0.0 
-0.132127 0.112873 0.0 
-0.0606599 0.152293 0.0 
0.390819 0.0909798 0.0 
0.313595 -0.0612262 0.0 
0.0934625 0.129397 0.0 
0.0765399 0.143714 0.0 
0.331053 0.106986 0.0 
0.403902 0.0913642 0.0 
-0.0398279 0.14552 0.0 
0.102188 -0.0871859 0.0 
0.182481 0.0987768 0.0 
0.00968369 0.0837265 0.0 
0.0923937 -0.0284457 0.0 
-0.177771 0.0204182 0.0 
0.0395943 0.11658 0.0 
-0.00670856 0.09105 0.0 
0.121582 0.0455875 0.0 
-0.0300171 0.109981 0.0 
0.0259669 0.0817097 0.0 
0.285996 -0.0485163 0.0 
-0.113837 0.0783606 0.0 
0.0234777 0.030358 0.0 
-0.0471558 0.155122 0.0 
-0.0279377 0.117852 0.0 
0.0613412 0.0643081 0.0 
-0.0298062 0.108528 0.0 
-0.0787527 0.119893 0.0 
0.0175968 0.0828991 0.0 
0.15934 0.0562526 0.0 
-0.0264625 0.132887 0.0 
0.299593 -0.037535 0.0 
-0.0510367 0.141851 0.0 
0.140103 0.0832307 0.0 
-0.0585133 0.150185 0.0 
-0.0189798 0.127558 0.0 
-0.10811 0.140776 0.0 
0.231749 -0.0495345 0.0 
0.189563 -0.0121745 0.0 
0.0437529 0.0926002 0.0 
0.117663 -0.0961796 0.0 
0.276464 -0.0205018 0.0 
-0.000675226 0.113918 0.0 
0.139381 -0.0982708 0.0 
0.031776 0.0177465 0.0 
0.0510725 0.105044 0.0 
-0.0354664 0.108808 0.0 
0.141514 -0.0500853 0.0 
0.0853245 0.0374316 0.0 
0.28569 0.115752 0.0 
-0.154422 0.029288 0.0 
-0.00947397 0.124396 0.0 
-0.0260448 0.128572 0.0 
0.405486 0.0934564 0.0 
0.00646895 0.154953 0.0 
0.191275 -0.051613 0.0 
0.0494154 0.111255 0.0 
0.0250589 0.0917215 0.0 
-0.185451 -0.014396 0.0 
0.201854 -0.108589 0.0 
-0.0503507 0.140108 0.0 
0.11892 -0.0930898 0.0 
-0.172509 0.00640582 0.0 
0.090059 0.102066 0.0 
0.299479 -0.105129 0.0 
-0.0218367 0.0984901 0.0 
-0.125905 0.092974 0.0 
-0.02927 0.150544 0.0 
0.371395 0.0774783 0.0 
-0.0616832 0.152128 0.0 
0.290205 0.0508449 0.0 
0.482461 -0.10348 0.0 
0.209393 -0.0400724 0.0 
0.136676 0.024532 0.0 
0.206765 -0.0848115 0.0 
0.158208 0.129491 0.0 
-0.183586 -0.0665889 0.0 
-0.0588398 0.144969 0.0 
-0.0124905 0.148711 0.0 
-0.028157 0.138517 0.0 
-0.0404214 0.123835 0.0 
0.469521 -0.100151 0.0 
0.0811517 0.123478 0.0 
-0.00251071 0.0379968 0.0 
0.0519905 0.0993165 0.0 
0.234888 -0.00959556 0.0 
-0.0139207 0.0721296 0.0 
0.174426 -0.00530412 0.0 
0.0343439 -0.017908 0.0 
-0.0808437 0.154562 0.0 
-0.174834 -0.0812484 0.0 
0.326423 -0.107614 0.0 
0.0997236 -0.0829612 0.0 
-0.0398532 0.152398 0.0 
-0.0359602 0.122725 0.0 
-0.100801 0.148069 0.0 
0.499466 -0.105111 0.0 
0.194887 -0.0901023 0.0 
0.152201 -0.00260882 0.0 
0.0438355 0.097017 0.0 
-0.0259655 0.11191 0.0 
-0.177015 -0.0872782 0.0 
0.214294 -0.0291936 0.0 
0.0970809 0.0897525 0.0 
-0.064217 0.162618 0.0 
0.304672 -0.0119262 0.0 
-0.0108698 0.0985765 0.0 
0.0337088 0.0309875 0.0 
0.113269 -0.0478919 0.0 
0.100155 0.0516793 0.0 
0.125488 0.00695844 0.0 
-0.123428 0.124057 0.0 
0.185633 0.0327367 0.0 
0.259184 -0.0297503 0.0 
0.119114 0.0255038 0.0 
-0.160655 0.0633259 0.0 
-0.00255198 -0.0161486 0.0 
-0.0169512 0.118493 0.0 
0.0972946 0.0358321 0.0 
0.320579 0.101196 0.0 
0.186546 0.0620757 0.0 
0.0228466 0.0613789 0.0 
0.053235 0.101548 0.0 
-0.0311385 0.136536 0.0 
0.0736002 -0.0578445 0.0 
0.106568 0.106108 0.0 
-0.0391152 0.127572 0.0 
0.383075 0.0966393 0.0 
-0.155629 0.0747867 0.0 
0.00406746 0.0483791 0.0 
-0.129317 0.113311 0.0 
0.00159055 0.119169 0.0 
0.310592 -0.0824953 0.0 
0.0340542 0.150367 0.0 
0.0171051 0.103207 0.0 
0.0105252 0.0368913 0.0 
-0.147621 0.079246 0.0 
-0.0369097 0.135285 0.0 
-0.0345217 0.133647 0.0 
-0.00916316 0.0507707 0.0 
0.00647197 0.0657788 0.0 
0.0114268 0.0493223 0.0 
0.0852415 0.11463 0.0 
-0.091975 -0.124156 0.0 
0.107945 0.0383138 0.0 
-0.024694 0.0950059 0.0 
-0.0302341 0.1426 0.0 
0.113636 0.138875 0.0 
-0.00970512 0.0567464 0.0 
-0.00193752 0.116644 0.0 
0.186317 0.0244304 0.0 