<VTKFile type="UnstructuredGrid" version="0.1" byte_order="LittleEndian">
  <UnstructuredGrid>
    <Piece NumberOfPoints="16262" NumberOfCells="31950">
      <Points>
        <DataArray type = "Float64" NumberOfComponents="3" format="ascii">
1.16635 1.04334 0.0 
1.08183 1.05174 0.0 
1.07574 1.18103 0.0 
1.26118 1.14844 0.0 
1.03748 1.05059 0.0 
1.12445 1.03884 0.0 
1.16148 1.21208 0.0 
1.27315 1.06843 0.0 
1.07527 1.0404 0.0 
1.12473 1.03607 0.0 
1.18033 1.04412 0.0 
1.06134 1.03459 0.0 
1.02393 1.06419 0.0 
1.08105 1.03473 0.0 
1.11604 1.18277 0.0 
1.24499 1.0753 0.0 
1.21454 1.05148 0.0 
1.166 1.03856 0.0 
1.1862 1.04292 0.0 
1.12513 1.2074 0.0 
1.02889 1.1023 0.0 
1.20271 1.0493 0.0 
1.04873 1.07487 0.0 
1.17467 1.03948 0.0 
0.99535 1.1033 0.0 
1.00103 1.11395 0.0 
1.20047 1.04798 0.0 
1.27849 1.05895 0.0 
1.29207 1.06421 0.0 
1.17572 1.11291 0.0 
1.13124 1.03906 0.0 
1.05813 1.03618 0.0 
1.04127 1.03779 0.0 
1.04102 1.10177 0.0 
1.15693 1.03829 0.0 
1.08906 1.03786 0.0 
1.07086 1.03439 0.0 
1.19203 1.19583 0.0 
1.24968 1.06111 0.0 
1.20093 1.22524 0.0 
1.28741 1.07545 0.0 
1.06093 1.0363 0.0 
1.25527 1.06896 0.0 
1.21727 1.0831 0.0 
1.1516 1.04535 0.0 
1.23192 1.19864 0.0 
1.21048 1.0498 0.0 
1.00364 1.07438 0.0 
1.21053 1.04806 0.0 
1.03658 1.11016 0.0 
1.2245 1.05019 0.0 
1.07075 1.03722 0.0 
1.07291 1.04055 0.0 
1.22416 1.05218 0.0 
1.1455 1.0383 0.0 
1.05214 1.06772 0.0 
1.04823 1.05374 0.0 
1.17222 1.0407 0.0 
1.19576 1.04455 0.0 
1.17942 1.04261 0.0 
1.08538 1.08832 0.0 
1.08175 1.05965 0.0 
1.04468 1.08335 0.0 
1.13221 1.04488 0.0 
1.23248 1.16648 0.0 
1.32458 1.07374 0.0 
1.20362 1.15257 0.0 
1.2768 1.05343 0.0 
1.20043 1.04299 0.0 
1.16624 1.18946 0.0 
1.22981 1.14452 0.0 
1.2633 1.08082 0.0 
1.0656 1.03541 0.0 
1.07668 1.1059 0.0 
1.06078 1.16364 0.0 
1.26611 1.05196 0.0 
1.02659 1.02252 0.0 
1.08775 1.16358 0.0 
1.09721 1.17886 0.0 
1.10709 1.03574 0.0 
1.03115 1.05557 0.0 
1.15395 1.11231 0.0 
1.13221 1.05991 0.0 
1.09054 1.03735 0.0 
1.04305 1.09322 0.0 
1.0554 1.03616 0.0 
1.11728 1.11555 0.0 
1.06345 1.03544 0.0 
1.1156 1.05417 0.0 
1.09161 1.0351 0.0 
1.15567 1.07074 0.0 
1.06659 1.03494 0.0 
1.03242 1.09452 0.0 
1.17814 1.04099 0.0 
1.06138 1.03546 0.0 
1.0353 1.1505 0.0 
1.17774 1.05579 0.0 
1.09023 1.05823 0.0 
1.1522 1.03793 0.0 
1.19001 1.04442 0.0 
1.04037 1.0627 0.0 
1.20842 1.04506 0.0 
1.06151 1.09066 0.0 
1.06815 1.0349 0.0 
1.06557 1.08398 0.0 
1.24338 1.10551 0.0 
1.0746 1.16146 0.0 
1.06041 1.07128 0.0 
1.01354 1.06528 0.0 
1.23924 1.12535 0.0 
1.18605 1.05113 0.0 
1.05323 1.09198 0.0 
1.27 1.1197 0.0 
1.03785 1.04248 0.0 
1.06936 1.11722 0.0 
1.08945 1.02192 0.0 
1.06102 1.0777 0.0 
1.20602 1.04407 0.0 
1.16266 1.04537 0.0 
1.10953 1.14798 0.0 
1.19773 1.11744 0.0 
1.12817 1.0353 0.0 
1.16399 1.04262 0.0 
1.22748 1.07443 0.0 
1.2369 1.06547 0.0 
1.19737 1.04701 0.0 
1.13843 1.04039 0.0 
1.30302 1.1221 0.0 
1.1437 1.04588 0.0 
1.14689 1.04744 0.0 
1.05557 1.08237 0.0 
1.04947 1.15043 0.0 
1.21251 1.12997 0.0 
1.0644 1.03339 0.0 
1.10823 1.07024 0.0 
1.14589 1.04 0.0 
1.16964 1.04781 0.0 
1.23576 1.05901 0.0 
1.00706 1.064 0.0 
1.19389 1.04344 0.0 
1.15974 1.0389 0.0 
1.06922 1.04742 0.0 
1.12743 1.03663 0.0 
1.07831 1.03473 0.0 
1.19045 1.04317 0.0 
1.16505 1.04937 0.0 
1.17863 1.0804 0.0 
1.12728 1.03747 0.0 
1.06492 1.1492 0.0 
1.03703 1.06745 0.0 
1.19224 1.05353 0.0 
1.07488 1.08598 0.0 
1.12055 1.03631 0.0 
1.07026 1.09381 0.0 
1.10901 1.04658 0.0 
1.25081 1.04931 0.0 
1.21178 1.07172 0.0 
1.03148 1.07367 0.0 
1.04807 1.03776 0.0 
1.05608 1.13851 0.0 
1.11663 1.03606 0.0 
1.16523 1.04443 0.0 
1.08773 1.03455 0.0 
1.1035 1.03817 0.0 
1.11245 1.03577 0.0 
1.08418 1.03464 0.0 
1.16854 1.03976 0.0 
1.12173 1.04509 0.0 
0.999285 1.09441 0.0 
1.06128 1.05324 0.0 
1.05517 1.12376 0.0 
1.14477 1.04257 0.0 
1.01282 1.11382 0.0 
1.02682 1.13618 0.0 
1.11334 1.03505 0.0 
1.09175 1.04715 0.0 
1.0215 1.08111 0.0 
1.12313 1.03547 0.0 
1.02209 1.14658 0.0 
1.23897 1.04771 0.0 
1.07243 1.04198 0.0 
1.17308 1.14909 0.0 
1.15672 1.09926 0.0 
1.06953 1.04189 0.0 
1.06872 1.03416 0.0 
1.06724 1.03433 0.0 
1.20536 1.0511 0.0 
1.26353 1.0492 0.0 
1.11939 1.04139 0.0 
1.22681 1.04567 0.0 
1.22231 1.04442 0.0 
1.01788 1.0876 0.0 
1.06292 1.10116 0.0 
1.16389 1.041 0.0 
1.13391 1.04091 0.0 
1.11851 1.03494 0.0 
1.24553 1.04827 0.0 
1.00811 1.10217 0.0 
1.06767 1.05291 0.0 
1.05101 1.03704 0.0 
1.16259 1.03815 0.0 
1.0485 1.11066 0.0 
1.05861 1.03524 0.0 
1.11057 1.03449 0.0 
1.13343 1.0355 0.0 
1.06029 1.03711 0.0 
1.13376 1.03725 0.0 
1.07202 1.0368 0.0 
1.07955 1.03549 0.0 
1.14093 1.03696 0.0 
1.26371 1.06268 0.0 
1.13829 1.10215 0.0 
1.14495 1.03916 0.0 
1.01396 1.08141 0.0 
1.09091 1.04445 0.0 
1.00893 1.06993 0.0 
1.13067 1.03998 0.0 
1.15647 1.08432 0.0 
1.06918 1.07671 0.0 
1.14821 1.03663 0.0 
1.08434 1.04044 0.0 
1.05335 1.04682 0.0 
1.06832 1.03331 0.0 
1.19557 1.04248 0.0 
1.07881 1.08037 0.0 
1.08357 1.03538 0.0 
1.16016 1.0439 0.0 
1.07144 1.03524 0.0 
1.06581 1.04444 0.0 
1.05977 1.03477 0.0 
1.17958 1.04698 0.0 
1.16329 1.0472 0.0 
1.06537 1.04206 0.0 
1.10249 1.03531 0.0 
1.21693 1.10933 0.0 
1.09137 1.05285 0.0 
1.10086 1.04673 0.0 
1.07355 1.03579 0.0 
1.25578 1.04768 0.0 
1.07639 1.03941 0.0 
1.08315 1.04697 0.0 
1.06503 1.0346 0.0 
1.21733 1.04583 0.0 
1.10483 1.10355 0.0 
1.09216 1.09685 0.0 
1.18754 1.13181 0.0 
1.07142 1.03601 0.0 
1.28556 1.08841 0.0 
1.07427 1.03422 0.0 
1.24898 1.04678 0.0 
1.11411 1.05899 0.0 
1.07469 1.03721 0.0 
1.10545 1.16427 0.0 
1.06031 1.04039 0.0 
1.23157 1.04681 0.0 
1.20032 1.04374 0.0 
1.17458 1.05049 0.0 
1.10341 1.03625 0.0 
1.20833 1.17659 0.0 
1.09714 1.03648 0.0 
1.17375 1.04214 0.0 
1.09762 1.03521 0.0 
1.02925 1.0247 0.0 
1.07178 1.02578 0.0 
1.0171 1.0257 0.0 
1.08716 1.03917 0.0 
1.05909 1.03412 0.0 
1.07005 1.02816 0.0 
1.03342 1.02312 0.0 
1.02557 1.02441 0.0 
1.0767 1.02533 0.0 
1.05824 1.02435 0.0 
1.10756 1.03504 0.0 
1.14111 1.04457 0.0 
1.03314 1.02205 0.0 
1.0849 1.03076 0.0 
1.07326 1.03152 0.0 
1.05942 1.02298 0.0 
1.06364 1.0347 0.0 
1.05613 1.02983 0.0 
1.08745 1.03526 0.0 
1.03105 1.01803 0.0 
1.05801 1.02788 0.0 
1.07078 1.02777 0.0 
1.03543 1.02118 0.0 
1.07381 1.02674 0.0 
1.08826 1.02741 0.0 
1.05196 1.03086 0.0 
1.0962 1.03356 0.0 
1.05923 1.0322 0.0 
1.06673 1.02225 0.0 
1.05867 1.02696 0.0 
1.07648 1.02867 0.0 
1.06182 1.02271 0.0 
1.05332 1.03376 0.0 
1.10385 1.04278 0.0 
1.08427 1.02223 0.0 
1.05333 1.02434 0.0 
1.045 1.0369 0.0 
1.07396 1.023 0.0 
1.0936 1.03394 0.0 
1.06862 1.02339 0.0 
1.08197 1.02233 0.0 
1.071 1.02692 0.0 
1.06118 1.0267 0.0 
1.06828 1.13445 0.0 
1.07622 1.02243 0.0 
1.0673 1.02852 0.0 
1.07462 1.02525 0.0 
1.03569 1.01899 0.0 
1.03717 1.01925 0.0 
1.06071 1.03111 0.0 
1.06114 1.03835 0.0 
1.03069 1.02207 0.0 
1.08173 1.09626 0.0 
1.07143 1.03928 0.0 
1.0199 1.02344 0.0 
1.03395 1.04834 0.0 
1.06101 1.02249 0.0 
1.05118 1.03583 0.0 
0.995572 1.07336 0.0 
1.06928 1.02564 0.0 
1.06592 1.03707 0.0 
1.06127 1.02954 0.0 
1.04061 1.05329 0.0 
1.08782 1.02403 0.0 
1.05487 1.02552 0.0 
1.05394 1.03457 0.0 
1.08517 1.02282 0.0 
1.04989 1.02361 0.0 
1.14289 1.03618 0.0 
1.29543 1.17346 0.0 
1.13292 1.03289 0.0 
0.996718 1.08692 0.0 
1.07022 1.02237 0.0 
1.07751 1.02831 0.0 
1.05406 1.02976 0.0 
1.03389 1.02208 0.0 
1.07921 1.03286 0.0 
1.01577 1.02281 0.0 
1.15771 1.04798 0.0 
1.05244 1.03294 0.0 
1.17475 1.04443 0.0 
1.06763 1.02464 0.0 
1.05947 1.02594 0.0 
1.02246 1.02355 0.0 
1.06192 1.03233 0.0 
1.11051 1.03746 0.0 
1.05886 1.0275 0.0 
1.07885 1.02746 0.0 
1.06607 1.02742 0.0 
1.13743 1.03952 0.0 
1.05811 1.03443 0.0 
1.07354 1.03303 0.0 
1.05723 1.02557 0.0 
1.16279 1.0369 0.0 
1.0763 1.02354 0.0 
1.0794 1.03214 0.0 
1.01662 1.02265 0.0 
1.03646 1.02008 0.0 
1.16193 1.03618 0.0 
1.05859 1.0317 0.0 
1.06063 1.02191 0.0 
1.05477 1.0334 0.0 
1.0804 1.03149 0.0 
1.0335 1.02066 0.0 
1.0748 1.02625 0.0 
1.06756 1.02228 0.0 
1.05662 1.0227 0.0 
1.02918 1.08091 0.0 
1.05692 1.02767 0.0 
1.06062 1.02469 0.0 
1.05581 1.02416 0.0 
1.0565 1.02607 0.0 
1.09404 1.03969 0.0 
1.07197 1.0224 0.0 
1.08656 1.02345 0.0 
1.10707 1.03685 0.0 
1.06691 1.03193 0.0 
1.06346 1.03188 0.0 
1.1652 1.04035 0.0 
1.06841 1.02599 0.0 
1.03456 1.02224 0.0 
1.0573 1.02825 0.0 
1.34033 1.16298 0.0 
1.05246 1.0225 0.0 
1.06428 1.03285 0.0 
1.08343 1.03222 0.0 
1.08228 1.04287 0.0 
1.05425 1.03243 0.0 
1.00155 1.06719 0.0 
1.03846 1.04597 0.0 
1.04926 1.04505 0.0 
1.01946 1.0569 0.0 
1.06078 1.02798 0.0 
1.06488 1.02977 0.0 
1.05464 1.02852 0.0 
1.06758 1.06861 0.0 
1.14068 1.03342 0.0 
1.00273 1.06155 0.0 
1.05977 1.02769 0.0 
1.13721 1.07468 0.0 
1.07209 1.02363 0.0 
1.06474 1.03041 0.0 
1.05737 1.03005 0.0 
1.08482 1.02221 0.0 
1.08875 1.03218 0.0 
1.07036 1.02575 0.0 
1.07053 1.02394 0.0 
1.14818 1.03416 0.0 
1.03403 1.0202 0.0 
1.05046 1.03181 0.0 
1.06369 1.02609 0.0 
1.04773 1.02942 0.0 
1.07916 1.02496 0.0 
1.07268 1.05752 0.0 
1.08835 1.03166 0.0 
1.03366 1.05202 0.0 
1.02245 1.02218 0.0 
1.07472 1.02817 0.0 
1.06635 1.06384 0.0 
1.06916 1.02851 0.0 
1.08296 1.02858 0.0 
1.04495 1.03974 0.0 
1.09468 1.03517 0.0 
1.06901 1.03175 0.0 
1.16616 1.03639 0.0 
1.16605 1.0374 0.0 
1.02473 1.05498 0.0 
1.07136 1.03098 0.0 
1.06814 1.03247 0.0 
1.06699 1.02699 0.0 
1.09082 1.03368 0.0 
1.08669 1.02587 0.0 
1.19728 1.05129 0.0 
1.08507 1.02997 0.0 
1.05432 1.0382 0.0 
1.05199 1.02569 0.0 
1.02441 1.02396 0.0 
1.04787 1.03435 0.0 
1.10637 1.04426 0.0 
1.05202 1.02916 0.0 
1.03056 1.01791 0.0 
1.08278 1.03622 0.0 
1.0762 1.02801 0.0 
1.07685 1.02945 0.0 
1.07725 1.03248 0.0 
1.13876 1.08821 0.0 
1.08689 1.032 0.0 
1.09484 1.03466 0.0 
1.08611 1.02499 0.0 
1.15345 1.04437 0.0 
1.06213 1.02973 0.0 
1.26002 1.17824 0.0 
1.08453 1.02661 0.0 
1.07549 1.03243 0.0 
1.08434 1.03285 0.0 
1.3892 1.18987 0.0 
1.08208 1.02781 0.0 
1.08259 1.03152 0.0 
1.07823 1.02589 0.0 
1.05848 1.11027 0.0 
1.07988 1.03035 0.0 
1.11756 1.03561 0.0 
1.05304 1.02129 0.0 
1.02062 1.02391 0.0 
1.06704 1.02288 0.0 
1.02916 1.02351 0.0 
1.08533 1.02335 0.0 
[...]
<PointData>
  <DataArray type = "Float64" Name="Vitesse" NumberOfComponents="3" format="ascii">
1.13126 -0.0328917 0.0 
1.1756 0.0753647 0.0 
1.05764 0.0340676 0.0 
1.05439 -0.0265744 0.0 
1.11684 0.182081 0.0 
1.0914 6.0478e-05 0.0 
1.05635 0.00565368 0.0 
1.04771 -0.0550294 0.0 
1.19866 0.0924113 0.0 
1.00996 -0.00455715 0.0 
1.12953 -0.054061 0.0 
1.18206 0.137106 0.0 
1.06529 0.157468 0.0 
1.10856 0.0601055 0.0 
1.06377 0.0201681 0.0 
1.06572 -0.0578367 0.0 
1.09788 -0.0826271 0.0 
1.06667 -0.0325906 0.0 
1.11844 -0.0643425 0.0 
1.05705 0.0155492 0.0 
1.06084 0.0936121 0.0 
1.11507 -0.0778 0.0 
1.10445 0.114951 0.0 
1.08552 -0.0463635 0.0 
1.02668 0.0921943 0.0 
1.03332 0.0840247 0.0 
1.11697 -0.0771739 0.0 
1.04118 -0.0561791 0.0 
1.04068 -0.0500726 0.0 
1.09363 -0.0132804 0.0 
1.08723 -0.00280027 0.0 
1.19693 0.152113 0.0 
1.16297 0.214014 0.0 
1.07362 0.089105 0.0 
1.05801 -0.0208138 0.0 
1.15777 0.0476169 0.0 
1.14518 0.0965769 0.0 
1.05786 -0.00333832 0.0 
1.05784 -0.0681889 0.0 
1.05101 -0.00244088 0.0 
1.04526 -0.0485792 0.0 
1.19661 0.141 0.0 
1.05727 -0.060621 0.0 
1.08646 -0.0490852 0.0 
1.14428 -0.0144014 0.0 
1.05192 -0.0115467 0.0 
1.10352 -0.0830211 0.0 
1.0247 0.131422 0.0 
1.10218 -0.0859841 0.0 
1.06566 0.0832347 0.0 
1.08198 -0.0862736 0.0 
1.19209 0.104864 0.0 
1.19944 0.0999369 0.0 
1.08303 -0.0832092 0.0 
1.0587 -0.0106766 0.0 
1.11942 0.121037 0.0 
1.13767 0.152439 0.0 
1.10417 -0.0421979 0.0 
1.11599 -0.0764218 0.0 
1.12136 -0.0535539 0.0 
1.11829 0.0594785 0.0 
1.15957 0.074182 0.0 
1.09051 0.107623 0.0 
1.14874 0.00157158 0.0 
1.05847 -0.0173954 0.0 
1.03827 -0.0432242 0.0 
1.06936 -0.0137716 0.0 
1.03759 -0.0585359 0.0 
1.1021 -0.0845295 0.0 
1.06203 0.00326005 0.0 
1.06419 -0.0228044 0.0 
1.0554 -0.051908 0.0 
1.18339 0.121104 0.0 
1.09728 0.0601917 0.0 
1.05926 0.0438867 0.0 
1.04021 -0.0655896 0.0 
1.02125 0.321158 0.0 
1.06692 0.0339292 0.0 
1.06279 0.0274776 0.0 
1.04173 0.00554648 0.0 
1.09121 0.176379 0.0 
1.09949 -0.000215981 0.0 
1.14817 0.00645392 0.0 
1.14459 0.0423137 0.0 
1.08111 0.0969279 0.0 
1.19615 0.163039 0.0 
1.09978 0.0255454 0.0 
1.18798 0.129948 0.0 
1.15959 0.0209152 0.0 
1.07587 0.0315403 0.0 
1.1326 -0.0125712 0.0 
1.17358 0.115943 0.0 
1.0678 0.101221 0.0 
1.10651 -0.0522082 0.0 
1.19137 0.138466 0.0 
1.05221 0.0565416 0.0 
1.13771 -0.0420804 0.0 
1.16261 0.058905 0.0 
1.04777 -0.0156917 0.0 
1.12201 -0.0683649 0.0 
1.10579 0.146807 0.0 
1.09881 -0.08927 0.0 
1.10155 0.0840039 0.0 
1.16782 0.10956 0.0 
1.11195 0.0851252 0.0 
1.06553 -0.0400124 0.0 
1.06435 0.0397096 0.0 
1.12448 0.103857 0.0 
1.04014 0.154473 0.0 
1.06413 -0.0311839 0.0 
1.13515 -0.0560929 0.0 
1.0929 0.0902794 0.0 
1.05373 -0.0353799 0.0 
1.13621 0.208005 0.0 
1.08539 0.059855 0.0 
0 0 0.0 
1.11573 0.0964865 0.0 
1.09856 -0.0884543 0.0 
1.1422 -0.0274645 0.0 
1.07887 0.0268992 0.0 
1.08331 -0.0222742 0.0 
0.972787 -0.0068245 0.0 
1.12597 -0.0300725 0.0 
1.07966 -0.0585094 0.0 
1.07072 -0.0670885 0.0 
1.12 -0.0750709 0.0 
1.10463 -0.00537037 0.0 
1.04439 -0.0350042 0.0 
1.14733 -0.00678294 0.0 
1.15015 -0.00945301 0.0 
1.10448 0.0981483 0.0 
1.05914 0.052712 0.0 
1.0731 -0.0230391 0.0 
1.14558 0.119457 0.0 
1.14328 0.0344724 0.0 
1.09457 -0.0102506 0.0 
1.14551 -0.0363174 0.0 
1.07061 -0.0740912 0.0 
1.0247 0.153976 0.0 
1.11381 -0.075591 0.0 
1.07245 -0.0241621 0.0 
1.18277 0.108316 0.0 
1.0251 -0.00465173 0.0 
1.12147 0.0695769 0.0 
1.11577 -0.0706378 0.0 
1.14831 -0.0295326 0.0 
1.11438 -0.0288601 0.0 
1.05255 -0.00330425 0.0 
1.0661 0.0477276 0.0 
1.09302 0.141009 0.0 
1.1278 -0.0613151 0.0 
1.11593 0.0726703 0.0 
1.02664 -0.00261445 0.0 
1.10491 0.0729562 0.0 
1.1703 0.0234817 0.0 
1.0466 -0.0776676 0.0 
1.09548 -0.0567597 0.0 
1.07677 0.133158 0.0 
1.18235 0.189211 0.0 
1.06672 0.0559888 0.0 
1.02632 -0.00147801 0.0 
1.13783 -0.0309216 0.0 
1.07063 0.0391247 0.0 
1.12377 0.0173979 0.0 
1.02639 0.000556418 0.0 
1.09108 0.0492955 0.0 
1.09002 -0.0365541 0.0 
1.15662 0.00960796 0.0 
1.02768 0.102199 0.0 
1.15961 0.123123 0.0 
1.0735 0.0645469 0.0 
1.1283 -0.00870283 0.0 
1.04357 0.0848049 0.0 
1.05105 0.0665305 0.0 
0.993388 -0.00216778 0.0 
1.18334 0.0528821 0.0 
1.05657 0.123616 0.0 
0.988552 -0.00516791 0.0 
1.04612 0.0611382 0.0 
1.05632 -0.0866141 0.0 
1.19763 0.101393 0.0 
1.07696 -0.003529 0.0 
1.10736 -0.00502257 0.0 
1.19716 0.110313 0.0 
1.14816 0.104364 0.0 
1.15872 0.111174 0.0 
1.1118 -0.0775653 0.0 
1.03683 -0.0687509 0.0 
1.13896 0.00727995 0.0 
1.06897 -0.0936038 0.0 
1.07187 -0.0956901 0.0 
1.05026 0.113932 0.0 
1.09302 0.0744415 0.0 
1.10856 -0.0298312 0.0 
1.11627 -0.00237883 0.0 
0.975059 -0.00513009 0.0 
1.04945 -0.0818633 0.0 
1.03887 0.0956971 0.0 
1.16685 0.108059 0.0 
1.19014 0.179412 0.0 
1.05607 -0.0276745 0.0 
1.07553 0.0771305 0.0 
1.19272 0.149726 0.0 
0.975039 -0.00169146 0.0 
0.974697 -0.00794192 0.0 
1.1986 0.143564 0.0 
1.03744 -0.00598677 0.0 
1.18616 0.0994955 0.0 
1.139 0.0684588 0.0 
1.02198 -0.00900678 0.0 
1.0492 -0.0613636 0.0 
1.10867 0.00931576 0.0 
1.07878 -0.00996319 0.0 
1.044 0.123296 0.0 
1.18733 0.0527778 0.0 
1.03133 0.142515 0.0 
1.10537 -0.00147474 0.0 
1.11999 -0.00915249 0.0 
1.12436 0.0861525 0.0 
1.00909 -0.0127919 0.0 
1.19096 0.0652807 0.0 
1.16475 0.153194 0.0 
1.12286 0.101699 0.0 
1.10577 -0.079138 0.0 
1.12507 0.0709048 0.0 
1.11955 0.0543218 0.0 
1.13622 -0.0247429 0.0 
1.16365 0.097511 0.0 
1.18838 0.120156 0.0 
1.18721 0.144257 0.0 
1.13923 -0.050808 0.0 
1.14636 -0.0280324 0.0 
1.19424 0.123205 0.0 
1.04011 0.00975267 0.0 
1.07786 -0.0330017 0.0 
1.17218 0.0558686 0.0 
1.17741 0.035597 0.0 
1.16785 0.0914157 0.0 
1.03823 -0.0755555 0.0 
1.19654 0.0882849 0.0 
1.18691 0.072195 0.0 
1.17214 0.121303 0.0 
1.08578 -0.0927618 0.0 
1.10803 0.0366324 0.0 
1.11189 0.049588 0.0 
1.08023 -0.0133376 0.0 
1.17754 0.0999179 0.0 
1.04735 -0.0451664 0.0 
1.12378 0.0823119 0.0 
1.04151 -0.081255 0.0 
1.15471 0.0244192 0.0 
1.18522 0.0909524 0.0 
1.07003 0.0266208 0.0 
1.19429 0.141297 0.0 
1.06451 -0.0903991 0.0 
1.10634 -0.0832764 0.0 
1.14418 -0.0416261 0.0 
1.07254 0.0115108 0.0 
1.0607 -0.00996579 0.0 
1.10104 0.0240366 0.0 
1.11955 -0.0445893 0.0 
1.05466 0.0186234 0.0 
1.09252 0.311939 0.0 
0.423488 0.0195891 0.0 
1.02836 0.359397 0.0 
1.17833 0.0554735 0.0 
1.18079 0.14585 0.0 
0.724476 0.0481885 0.0 
0.891352 0.219503 0.0 
1.09637 0.346466 0.0 
0.333979 0.00780252 0.0 
0.392515 0.0366479 0.0 
1.01098 0.00265214 0.0 
1.14334 -0.00517306 0.0 
0.753523 0.183697 0.0 
0.849905 0.0249836 0.0 
0.994698 0.0686585 0.0 
0.172135 0.0137459 0.0 
1.17804 0.127571 0.0 
1.04683 0.13439 0.0 
1.09928 0.0430292 0.0 
0 0 0.0 
0.854503 0.0967611 0.0 
0.6726 0.0415562 0.0 
0.492413 0.104763 0.0 
0.522756 0.0232139 0.0 
0.510766 -0.000405219 0.0 
1.13582 0.168559 0.0 
0.981206 0.0141717 0.0 
1.13564 0.13735 0.0 
0 0 0.0 
0.738712 0.0783073 0.0 
0.716745 0.03275 0.0 
0.104004 0.0071112 0.0 
1.18701 0.17157 0.0 
1.17082 0.0264082 0.0 
0 0 0.0 
0.480997 0.0553184 0.0 
1.17736 0.203048 0.0 
0.066922 0.000930502 0.0 
1.01395 0.0213683 0.0 
0.140269 0.00591881 0.0 
0 0 0.0 
0.571158 0.0320324 0.0 
0.666958 0.0628908 0.0 
1.07445 0.0523143 0.0 
0 0 0.0 
0.794262 0.0624917 0.0 
0.335815 0.0102495 0.0 
0 0 0.0 
0 0 0.0 
1.07687 0.121887 0.0 
1.19919 0.140033 0.0 
0.856688 0.231693 0.0 
1.1088 0.0601374 0.0 
1.19956 0.104363 0.0 
1.05504 0.382762 0.0 
1.10973 0.195693 0.0 
0.0816084 0.00581774 0.0 
1.19254 0.180592 0.0 
1.0109 0.126867 0.0 
0.428013 0.0237498 0.0 
1.19674 0.122364 0.0 
0.96517 0.102626 0.0 
1.12066 0.168812 0.0 
0.170766 -0.00581228 0.0 
0.620808 0.0713563 0.0 
1.19189 0.169352 0.0 
0.0547001 -0.00209695 0.0 
0.442784 0.0560941 0.0 
0.994052 -0.0101788 0.0 
1.04382 -0.0233389 0.0 
0.846435 -0.0101043 0.0 
1.02153 0.109619 0.0 
0 0 0.0 
0.669668 0.026773 0.0 
1.0655 0.146022 0.0 
0.726353 0.171093 0.0 
1.03421 0.0561051 0.0 
1.00642 0.391478 0.0 
1.14885 -0.0205834 0.0 
1.17987 0.174413 0.0 
1.13476 -0.0451252 0.0 
0.313784 0.0174665 0.0 
0.594974 0.0580505 0.0 
1.07515 0.371041 0.0 
1.12375 0.125029 0.0 
1.08773 0.0069883 0.0 
0.799741 0.0863951 0.0 
0.566945 0.0172951 0.0 
0.686681 0.0537361 0.0 
1.09046 -0.00549955 0.0 
1.18665 0.150863 0.0 
1.07919 0.0784448 0.0 
0.582994 0.0611107 0.0 
1.02272 -0.0271959 0.0 
0.124595 0.00104196 0.0 
0.990037 0.0508441 0.0 
1.01633 0.394493 0.0 
0.215461 0.0414071 0.0 
0.999403 -0.0257929 0.0 
1.1213 0.137505 0.0 
0 0 0.0 
1.18102 0.164215 0.0 
0.937759 0.0430082 0.0 
0.481646 0.110058 0.0 
0.457006 0.0171525 0.0 
0 0 0.0 
0.169129 0.0150569 0.0 
1.06906 0.121579 0.0 
0.849796 0.0995 0.0 
0.404005 0.0346302 0.0 
0.404729 0.0414566 0.0 
0.664446 0.0736456 0.0 
1.16918 0.0399703 0.0 
0 0 0.0 
0.115643 -0.00423122 0.0 
1.07999 0.00918023 0.0 
1.07015 0.0989848 0.0 
1.09402 0.114383 0.0 
1.09938 -0.0316221 0.0 
0.481982 0.0294074 0.0 
0.722484 0.166298 0.0 
0.90316 0.106417 0.0 
1.03626 -0.0265222 0.0 
0.207404 0.0218612 0.0 
1.12866 0.117099 0.0 
0.968457 0.0384879 0.0 
1.19472 0.0728029 0.0 
1.16665 0.164005 0.0 
1.01522 0.142547 0.0 
1.12956 0.194565 0.0 
1.16172 0.16841 0.0 
1.05459 0.178403 0.0 
0.823319 0.0841034 0.0 
0.941486 0.0875999 0.0 
0.96788 0.126416 0.0 
1.13597 0.0951388 0.0 
0.872513 -0.0104135 0.0 
1.01284 0.155319 0.0 
0.806788 0.0846372 0.0 
1.13356 0.00555022 0.0 
0.151031 0.00428878 0.0 
0.99399 0.0951826 0.0 
1.04729 0.129671 0.0 
0 0 0.0 
0.93428 0.0238574 0.0 
0.432818 0.0222746 0.0 
0.198719 0.00743475 0.0 
0.909645 -0.0125271 0.0 
0.357793 0.0780801 0.0 
1.1676 0.181906 0.0 
0.551851 0.0447786 0.0 
1.11218 0.184381 0.0 
0.279191 0.00264751 0.0 
1.1601 0.0934777 0.0 
0.899448 0.0218249 0.0 
1.10262 0.183882 0.0 
1.04929 0.3731 0.0 
0.679245 0.0335758 0.0 
1.14259 0.101576 0.0 
0.771752 0.055175 0.0 
0.659465 0.0154782 0.0 
1.16782 0.195233 0.0 
1.06474 0.0243549 0.0 
1.04313 0.0880724 0.0 
1.0096 -0.0318586 0.0 
1.03866 -0.0320797 0.0 
1.07169 0.183239 0.0 
0.972422 0.0717772 0.0 
1.08849 0.0972386 0.0 
0.624173 0.0451859 0.0 
1.01379 0.0268099 0.0 
0.356585 -0.00316309 0.0 
1.12301 -0.0694789 0.0 
0.78044 0.0195747 0.0 
1.19271 0.165077 0.0 
0.703527 0.0914354 0.0 
1.08741 0.356125 0.0 
1.18896 0.196614 0.0 
1.17144 0.0244954 0.0 
1.05179 0.152112 0.0 
0 0 0.0 
1.1452 0.0599601 0.0 
0.648936 0.02787 0.0 
0.791447 0.0381234 0.0 
1.02513 0.0607185 0.0 
1.12062 0.00671847 0.0 
0.932534 0.0274112 0.0 
1.04246 0.0217644 0.0 
0.26575 -0.00428381 0.0 
1.1397 -0.0165014 0.0 
0.969944 0.100562 0.0 
1.05049 -0.0191299 0.0 
0.441831 0.00191173 0.0 
1.03438 0.066799 0.0 
1.00252 0.0395751 0.0 
1.02876 -0.0226713 0.0 
0.584277 0.0124411 0.0 
0.924896 0.0364025 0.0 
0.391463 0.00841685 0.0 
1.08304 0.0712756 0.0 
0.850353 0.0363596 0.0 
1.0063 -0.00317172 0.0 
0 0 0.0 
1.06375 0.376324 0.0 
0.0828338 0.00369343 0.0 
1.03776 0.299219 0.0 
0.104493 -0.0034396 0.0 
0.897414 -0.00529867 0.0 
1.13375 0.113152 0.0 
0.36824 0.0202384 0.0 
0.8899 0.0695307 0.0 
1.08678 0.161538 0.0 
0.831235 0.056407 0.0 
0.985705 0.00886144 0.0 
0.817589 0.0622511 0.0 
1.08372 0.0255949 0.0 
1.0788 0.149901 0.0 
0.976625 0.159977 0.0 
0.73435 0.0298707 0.0 
0.292164 0.0607296 0.0 
1.09128 0.143702 0.0 
0.546256 0.0539574 0.0 
1.19451 0.16123 0.0 
0 0 0.0 
1.04644 0.000250553 0.0 
1.02562 0.172678 0.0 
0.0925708 0.00289249 0.0 
1.05999 0.0659853 0.0 
0.979923 0.325164 0.0 
1.03625 0.112028 0.0 
0.911187 0.0473767 0.0 
0.771244 0.0405982 0.0 
0.612342 0.14305 0.0 
0.912623 0.0184451 0.0 
1.11302 -0.0412202 0.0 
1.18897 0.16032 0.0 
0 0 0.0 
0.0523798 0.000348963 0.0 
0.221823 0.0225316 0.0 
0.605461 0.011137 0.0 
1.1437 -0.0358001 0.0 
0.588187 0.0213924 0.0 
0 0 0.0 
1.05791 0.191151 0.0 
1.13185 -0.0633444 0.0 
1.19735 0.0833459 0.0 
0.185633 0.00914546 0.0 
1.02869 0.113247 0.0 
0.99754 -0.0174199 0.0 
0.0550656 -0.00249006 0.0 
0.967426 0.0287052 0.0 
0.308052 0.0130608 0.0 
0.792261 0.0159865 0.0 
1.18967 0.190004 0.0 
0.100711 0.00284176 0.0 
0.495568 0.014648 0.0 
0.509575 0.0506541 0.0 
1.14883 0.00909654 0.0 
0.802359 0.104831 0.0 
1.18987 0.116976 0.0 
1.02739 0.370862 0.0 
0.678711 0.170487 0.0 
0.846323 0.0465476 0.0 
0.587411 0.0518633 0.0 
0.305182 -0.00276063 0.0 
1.009 0.25792 0.0 
0.994344 0.0800238 0.0 
1.14954 -0.00751571 0.0 
0.819812 0.0142171 0.0 
0 0 0.0 
0.0599221 0.00125197 0.0 
1.15704 0.0409645 0.0 
0.677816 0.0818265 0.0 
0.0443434 -0.0013925 0.0 
1.07126 0.017818 0.0 
1.01709 0.156514 0.0 
0.663808 0.0121994 0.0 
0.181645 0.0391711 0.0 
1.11384 -0.00653008 0.0 
1.14625 -0.0266273 0.0 
1.17281 0.0919957 0.0 
0 0 0.0 
0.25524 0.00346081 0.0 
1.18056 0.113349 0.0 
1.13428 0.149302 0.0 
0.0746916 -0.000285566 0.0 
0.152583 0.00327196 0.0 
0.58068 0.00809686 0.0 
1.11164 -0.0675093 0.0 
0.811115 0.192725 0.0 
0.381393 0.0113473 0.0 
0.942719 -0.00828764 0.0 
1.15813 0.171484 0.0 
1.11613 -0.0419921 0.0 
1.13659 0.0781606 0.0 
0.877024 -0.0098242 0.0 
0.916051 0.0790099 0.0 
0.867225 0.0411009 0.0 
0.711063 0.0725578 0.0 
0.416911 0.0166176 0.0 
0 0 0.0 
1.14165 -0.0426371 0.0 
1.0535 0.316839 0.0 
1.15809 0.132306 0.0 
0.262477 0.00787377 0.0 
0.583329 0.0254468 0.0 
1.04187 0.360997 0.0 
1.1202 0.0109818 0.0 
1.14167 0.176914 0.0 
1.16114 0.0151924 0.0 
1.18112 0.154334 0.0 
0.995885 0.0605146 0.0 
0.207192 0.00722834 0.0 
1.10499 -0.04472 0.0 
0.496439 0.0170495 0.0 
0.525352 0.0571694 0.0 
0.276651 0.00981958 0.0 
0.982244 -0.0140281 0.0 
0.24913 0.0121291 0.0 
0.727841 0.0138212 0.0 
0.952595 0.0538694 0.0 
1.12407 -0.0172423 0.0 
0.531718 0.0260171 0.0 
1.07079 0.00523962 0.0 
0.579232 0.0386588 0.0 
1.0524 -0.036869 0.0 
0.42051 0.0255347 0.0 
1.05793 0.384429 0.0 
0.451056 0.11528 0.0 
1.08585 0.173469 0.0 
0.0835546 0.000709733 0.0 
0.0681101 -0.00016266 0.0 
1.15149 0.00747728 0.0 
1.09388 0.0884877 0.0 
0.205507 0.0429732 0.0 
1.13751 -0.00579946 0.0 
1.00658 0.238687 0.0 
1.09633 0.133072 0.0 
0.693221 0.0737469 0.0 
0.408955 0.0441491 0.0 
1.11989 0.0208625 0.0 
0.108282 0.0101043 0.0 
1.03958 0.375471 0.0 
0.772403 0.0854888 0.0 
1.08955 -0.0553069 0.0 
1.07476 0.0899841 0.0 
1.15311 -0.00130487 0.0 
1.00456 0.333876 0.0 
1.07015 0.00170793 0.0 
1.0224 -0.0174462 0.0 
1.07791 0.137652 0.0 
1.06983 0.313231 0.0 
1.05766 0.383648 0.0 
1.08454 0.154954 0.0 
0.938728 -0.0072394 0.0 
0.456809 0.131991 0.0 
1.18084 0.0389522 0.0 
1.10483 0.340199 0.0 
1.13952 -0.0159902 0.0 
0.480012 0.130962 0.0 
0.891714 0.213844 0.0 
0.0743196 0.00633686 0.0 
1.00292 0.110906 0.0 
1.03622 0.318757 0.0 
0.959014 0.0782843 0.0 
0.0753325 0.00133405 0.0 
0.312679 0.076645 0.0 
0.359724 0.0391484 0.0 
1.04133 -0.0432065 0.0 
1.14925 0.0870157 0.0 
1.02179 0.0757331 0.0 
1.04331 -0.00112227 0.0 
1.08483 0.326034 0.0 
0.655963 0.191005 0.0 
1.1459 0.0675554 0.0 
1.06842 0.00439622 0.0 
1.18286 0.199457 0.0 
1.19519 0.130595 0.0 
0.228546 -0.00535999 0.0 
1.08852 0.0100538 0.0 
1.03865 -0.00569297 0.0 
1.08398 0.0832009 0.0 
1.01208 0.141798 0.0 
1.10199 0.329681 0.0 
1.07076 -0.00679881 0.0 
1.0369 -3.5755e-05 0.0 
0.815001 0.198102 0.0 
1.09615 0.148915 0.0 
1.15486 0.153828 0.0 
0.722357 0.0215165 0.0 
1.17397 0.105259 0.0 
0 0 0.0 
0.800167 0.107351 0.0 
1.02235 0.091708 0.0 
0.926297 0.137896 0.0 
0.739947 0.0865312 0.0 
0.918851 0.0902408 0.0 
1.0689 0.289494 0.0 
1.13422 -0.0569133 0.0 
0.749778 0.209775 0.0 
1.09492 0.336825 0.0 
1.15754 0.00856964 0.0 
1.19677 0.0969964 0.0 
1.0543 0.374538 0.0 
1.14951 0.0520012 0.0 
1.19054 0.180168 0.0 
1.10935 0.163235 0.0 
1.16085 0.193894 0.0 
0.898102 0.00364263 0.0 
0.111008 0.0204207 0.0 
1.0405 0.00532664 0.0 
0.0688315 0.00332864 0.0 
0.902684 0.0551762 0.0 
1.06102 0.063196 0.0 
0 0 0.0 
1.12412 0.0485912 0.0 
0.210815 -0.00374537 0.0 
0 0 0.0 
1.11334 -0.0184028 0.0 
0.173479 -0.00446001 0.0 
1.13092 -0.0576968 0.0 
1.1701 0.140712 0.0 
1.11819 -0.0105491 0.0 
0.717737 0.184609 0.0 
1.04337 0.187501 0.0 
1.03764 -0.0134993 0.0 
1.18853 0.192413 0.0 
0.932574 0.0320587 0.0 
1.19756 0.0927275 0.0 
1.13261 0.291612 0.0 
0.6137 0.0635616 0.0 
1.04494 -0.00881113 0.0 
0.161266 0.0396099 0.0 
1.17332 0.198419 0.0 
1.08266 0.340555 0.0 
1.07588 0.034613 0.0 
1.09496 0.279015 0.0 
1.14143 0.124241 0.0 
1.10012 0.258008 0.0 
1.07522 0.367797 0.0 
1.14273 0.130652 0.0 
1.04559 -0.0397809 0.0 
0.800326 0.0252164 0.0 
0 0 0.0 
1.17726 0.189863 0.0 
1.14325 0.00260416 0.0 
1.12701 -0.0499658 0.0 
1.10657 0.0948345 0.0 
1.0079 0.0936516 0.0 
0.742516 0.113392 0.0 
0.0714778 0.0043163 0.0 
0.947525 -0.00946793 0.0 
0.611157 0.0328037 0.0 
0.971578 -0.0207238 0.0 
0.188165 0.0361738 0.0 
1.07777 0.126138 0.0 
0.218723 0.0192242 0.0 
1.09062 -0.026362 0.0 
0.835918 0.119442 0.0 
1.15182 0.000925075 0.0 
0.660723 -0.00784396 0.0 
0.955766 -0.0157415 0.0 
1.0474 0.00501754 0.0 
1.17796 0.143384 0.0 
0.963405 -0.0112728 0.0 
1.04389 0.381565 0.0 
1.12774 -0.0671304 0.0 
1.09134 0.357723 0.0 
0.854328 0.0197219 0.0 
1.12272 -0.00464552 0.0 
0.86806 0.063426 0.0 
1.058 0.110623 0.0 
0.770213 0.0883566 0.0 
1.19798 0.152116 0.0 
0.986633 0.280997 0.0 
1.0777 -0.0421963 0.0 
0.591574 0.154084 0.0 
0.861556 0.215799 0.0 
1.17627 0.0737011 0.0 
0.940433 0.133246 0.0 
1.13618 0.00325026 0.0 
0.269242 -0.00694011 0.0 
0.947716 0.0488325 0.0 
1.20001 0.128141 0.0 
1.10236 0.0479076 0.0 
0.381166 0.0427464 0.0 
0.914054 0.120498 0.0 
0.976723 0.13173 0.0 
1.02088 0.364037 0.0 
1.14125 0.187543 0.0 
1.19418 0.173215 0.0 
0.881595 0.119328 0.0 
1.19868 0.120755 0.0 
0.514148 0.00672163 0.0 
1.07195 0.0419763 0.0 
1.04869 -0.0748305 0.0 
0.922288 -0.00819503 0.0 
1.06718 0.378053 0.0 
0.542783 0.0417419 0.0 
0.887676 -0.00689408 0.0 
0 0 0.0 
0.85699 -0.00707391 0.0 
0.197157 0.0124345 0.0 
1.07206 0.330466 0.0 
0.956141 0.139795 0.0 
0.168291 0.00433926 0.0 
1.03186 -0.0381638 0.0 
1.06674 0.0722848 0.0 
0.510831 0.0465617 0.0 
1.06725 -0.003447 0.0 
1.09801 -0.0568365 0.0 
1.05365 0.216288 0.0 
1.1651 0.022918 0.0 
1.05426 0.151586 0.0 
0.648931 0.0840519 0.0 
0 0 0.0 
0.784175 0.0293785 0.0 
1.1571 0.0195257 0.0 
1.02913 -0.0344153 0.0 
0.713809 0.0543179 0.0 
0.919694 -0.00625635 0.0 
0.901319 -0.00827743 0.0 
0.17823 0.0072286 0.0 
0.508474 0.0339821 0.0 
1.03276 0.279038 0.0 
1.08598 0.135387 0.0 
0 0 0.0 
1.12002 0.00630572 0.0 
1.00721 0.101168 0.0 
1.0957 -0.0442228 0.0 
1.16554 0.03641 0.0 
0.657106 0.0530923 0.0 
1.02332 0.287899 0.0 
0.503724 0.0474881 0.0 
0.918534 0.260229 0.0 
1.03334 0.272206 0.0 
0 0 0.0 
1.0191 -0.0381091 0.0 
1.1204 0.292175 0.0 
1.10885 -0.0558545 0.0 
0.153749 0.0277865 0.0 
1.05013 0.167809 0.0 
1.1959 0.162006 0.0 
0.283652 0.0271727 0.0 
1.19981 0.122834 0.0 
1.00284 0.378283 0.0 
1.00506 0.269935 0.0 
0.100188 0.00573969 0.0 
1.00882 0.0467913 0.0 
0.927078 0.116339 0.0 
1.07377 0.0169196 0.0 
0.497604 0.0406038 0.0 
1.11517 -0.0790685 0.0 
1.0645 0.169734 0.0 
0 0 0.0 
1.12542 -0.0354138 0.0 
0 0 0.0 
1.14772 0.172557 0.0 
0.902621 0.114743 0.0 
1.19145 0.124235 0.0 
0.978968 0.000754335 0.0 
1.04961 0.383918 0.0 
0.61336 0.0529348 0.0 
0.85889 0.0810271 0.0 
0.763833 0.0965344 0.0 
0.663737 0.18808 0.0 
0.96073 0.116096 0.0 
1.07278 -0.0883939 0.0 
0.727098 0.0429797 0.0 
1.16797 0.13848 0.0 
1.09847 0.322163 0.0 
1.19499 0.083592 0.0 
1.08529 0.034966 0.0 
1.18834 0.149352 0.0 
1.05175 0.0996678 0.0 
0.261869 0.0160128 0.0 
1.07322 -0.00391252 0.0 
1.06926 -0.000229057 0.0 
1.19237 0.0978244 0.0 
0 0 0.0 
0.930777 -0.0207603 0.0 
1.19663 0.131365 0.0 
1.17043 0.0324186 0.0 
1.15085 -0.0130543 0.0 
1.12964 0.0600934 0.0 
0.82792 -0.010459 0.0 
1.19443 0.112453 0.0 
1.18364 0.17507 0.0 
0.45229 0.0385617 0.0 
1.07718 0.300245 0.0 
0.369451 0.0276582 0.0 
1.1166 0.177112 0.0 
1.03609 0.387824 0.0 
1.18448 0.0445602 0.0 
1.15321 0.146611 0.0 
0.911501 0.0927766 0.0 
0 0 0.0 
0.352801 -0.000345889 0.0 
1.14146 0.144196 0.0 
1.13111 0.0367012 0.0 
1.09001 0.168353 0.0 
0.357864 0.0234091 0.0 
1.1236 -0.0631491 0.0 
0.536665 0.142671 0.0 
0.934326 -0.00612132 0.0 
1.14458 0.125402 0.0 
1.20026 0.119564 0.0 
1.1175 0.0322664 0.0 
0.97529 0.305345 0.0 
0.811986 0.0728032 0.0 
0.841705 0.0318328 0.0 
0.632882 0.084586 0.0 
1.16594 0.0217466 0.0 