<VTKFile type="UnstructuredGrid" version="0.1" byte_order="LittleEndian">
  <UnstructuredGrid>
    <Piece NumberOfPoints="13766" NumberOfCells="26993">
      <Points>
        <DataArray type = "Float64" NumberOfComponents="3" format="ascii">
1.03486 1.01464 0.0 
1.02483 1.01072 0.0 
0.879354 1.07402 0.0 
1.0345 1.01526 0.0 
0.971198 1.03676 0.0 
1.02846 1.01337 0.0 
0.900175 1.03575 0.0 
1.03861 1.00804 0.0 
0.909474 1.04329 0.0 
0.892017 1.0102 0.0 
1.04593 1.01263 0.0 
0.97308 1.03283 0.0 
1.03347 1.00893 0.0 
1.02129 1.01363 0.0 
0.830558 1.05987 0.0 
1.03867 1.0167 0.0 
0.989879 1.07839 0.0 
0.978009 1.06993 0.0 
1.04132 1.01911 0.0 
0.911614 1.00885 0.0 
1.04754 1.01619 0.0 
0.971233 1.02641 0.0 
1.03961 1.00978 0.0 
1.01956 1.01382 0.0 
0.943759 0.987645 0.0 
1.04461 1.01405 0.0 
1.04599 1.01028 0.0 
1.02768 1.01743 0.0 
1.03891 1.00659 0.0 
0.96927 1.00305 0.0 
1.04607 1.01421 0.0 
1.02329 1.01627 0.0 
1.02579 1.01543 0.0 
1.03021 1.00739 0.0 
1.02646 1.00734 0.0 
1.02972 1.00885 0.0 
0.976744 1.04504 0.0 
1.04412 1.00886 0.0 
1.03846 1.00665 0.0 
1.02649 1.01041 0.0 
1.03257 1.01797 0.0 
1.02996 1.01502 0.0 
0.815228 1.03825 0.0 
1.03751 1.00752 0.0 
0.969136 1.03319 0.0 
1.02516 1.01516 0.0 
1.0226 1.01384 0.0 
1.0279 1.01288 0.0 
1.0301 1.01409 0.0 
1.04471 1.01257 0.0 
1.03632 1.01207 0.0 
1.02247 1.01453 0.0 
1.03114 1.01885 0.0 
1.03364 1.01189 0.0 
1.03087 1.01354 0.0 
1.02644 1.01568 0.0 
1.02704 1.01103 0.0 
1.04309 1.012 0.0 
1.02456 1.00863 0.0 
0.896345 1.06889 0.0 
0.968095 1.01227 0.0 
0.978486 1.04236 0.0 
0.996639 1.05204 0.0 
1.04145 1.00681 0.0 
1.04651 1.01645 0.0 
1.0333 1.01445 0.0 
0.974375 1.04103 0.0 
1.03405 1.01766 0.0 
1.02869 1.01247 0.0 
0.967377 1.00621 0.0 
0.969813 1.0298 0.0 
1.02491 1.00926 0.0 
0.97032 0.996832 0.0 
0.975875 0.997096 0.0 
1.0247 1.01399 0.0 
1.03384 1.01577 0.0 
1.02323 1.01698 0.0 
1.0399 1.00644 0.0 
0.969065 0.999733 0.0 
1.02946 1.01366 0.0 
1.03357 1.01512 0.0 
1.02482 1.01337 0.0 
1.0258 1.01184 0.0 
1.03162 1.01209 0.0 
0.970437 1.02053 0.0 
1.04069 1.01384 0.0 
1.03496 1.01013 0.0 
1.04337 1.00842 0.0 
1.03298 1.01325 0.0 
1.04282 1.01739 0.0 
1.0256 1.0093 0.0 
0.987447 1.03619 0.0 
0.887961 1.02588 0.0 
1.03168 1.01469 0.0 
1.04319 1.00984 0.0 
1.04223 1.01312 0.0 
1.02758 1.0095 0.0 
1.04709 1.00897 0.0 
1.0253 1.01129 0.0 
1.04483 1.00858 0.0 
0.911951 1.03231 0.0 
1.02523 1.00998 0.0 
0.959653 1.03129 0.0 
0.991582 1.07214 0.0 
1.02412 1.01086 0.0 
1.02429 1.01017 0.0 
1.02221 1.01721 0.0 
0.981587 1.0458 0.0 
0.964516 1.00636 0.0 
0.959169 1.00834 0.0 
1.02414 1.00793 0.0 
1.02282 1.01097 0.0 
0.968233 1.00865 0.0 
0.975234 0.995236 0.0 
1.02233 1.01649 0.0 
1.04457 1.0056 0.0 
1.02762 1.01672 0.0 
1.02854 1.01647 0.0 
1.04766 1.01556 0.0 
0.978615 0.999074 0.0 
1.02435 1.01148 0.0 
0.990367 1.06653 0.0 
1.04174 1.01849 0.0 
1.02022 1.01235 0.0 
1.0389 1.01552 0.0 
1.04746 1.01367 0.0 
1.04345 1.00769 0.0 
0.977221 0.998135 0.0 
0.97548 0.999202 0.0 
1.0501 1.01052 0.0 
1.02082 1.01328 0.0 
0.980122 1.02612 0.0 
1.02355 1.00868 0.0 
1.043 1.01343 0.0 
1.02061 1.01616 0.0 
1.02042 1.01291 0.0 
1.03352 1.01781 0.0 
1.01961 1.01323 0.0 
1.03016 1.01585 0.0 
1.03079 1.01219 0.0 
0.975374 1.01384 0.0 
0.976062 1.00405 0.0 
1.04509 1.01482 0.0 
1.02393 1.01421 0.0 
1.04193 1.01697 0.0 
0.975598 1.00164 0.0 
1.03956 1.0171 0.0 
0.978496 1.0223 0.0 
0.902744 1.00776 0.0 
0.977596 1.01916 0.0 
1.04862 1.00735 0.0 
0.974546 1.00957 0.0 
1.02017 1.01366 0.0 
0.973871 1.00347 0.0 
1.04529 1.01334 0.0 
1.03295 1.00726 0.0 
1.03679 1.01123 0.0 
1.02908 1.01533 0.0 
1.04141 1.0135 0.0 
1.04534 1.01086 0.0 
1.02835 1.00943 0.0 
1.02558 1.01307 0.0 
0.974405 1.00635 0.0 
1.04599 1.00729 0.0 
0.982385 1.09093 0.0 
0.986215 1.03373 0.0 
0.977134 1.00018 0.0 
1.03967 1.01831 0.0 
1.02806 1.01009 0.0 
1.03598 1.00823 0.0 
0.976461 1.01566 0.0 
0.97574 1.008 0.0 
1.049 1.00845 0.0 
0.980736 1.02403 0.0 
0.98281 1.03121 0.0 
0.978892 1.02055 0.0 
1.04749 1.00796 0.0 
0.973622 1.00075 0.0 
1.00229 1.04186 0.0 
1.04687 1.01014 0.0 
1.03469 1.014 0.0 
1.02663 1.01484 0.0 
1.02333 1.01368 0.0 
1.03934 1.01776 0.0 
0.982408 1.02629 0.0 
0.977126 1.00662 0.0 
1.03694 1.00758 0.0 
0.977987 1.01742 0.0 
1.04521 1.00631 0.0 
1.04453 1.01729 0.0 
1.03922 1.01369 0.0 
0.978841 1.01536 0.0 
0.976025 1.01171 0.0 
1.03433 1.01134 0.0 
0.977958 1.00405 0.0 
0.977416 1.0022 0.0 
0.977481 1.01353 0.0 
1.02464 1.00968 0.0 
1.04867 1.01408 0.0 
1.03455 1.01596 0.0 
1.0213 1.01158 0.0 
1.02397 1.00721 0.0 
1.0365 1.0189 0.0 
1.04209 1.00787 0.0 
0.994928 1.0378 0.0 
0.985611 1.03138 0.0 
1.0231 1.01499 0.0 
1.0249 1.01271 0.0 
0.980577 1.02187 0.0 
0.991439 1.03617 0.0 
1.03526 1.01725 0.0 
1.03866 1.01402 0.0 
0.979771 1.01916 0.0 
1.03224 1.01587 0.0 
1.04602 1.00664 0.0 
0.978529 1.00558 0.0 
1.02535 1.00866 0.0 
1.04006 1.01899 0.0 
1.03913 1.01259 0.0 
1.0439 1.01052 0.0 
1.04028 1.00744 0.0 
0.978473 1.0008 0.0 
1.04628 1.00524 0.0 
0.983917 1.02857 0.0 
0.952502 0.999337 0.0 
0.997593 1.04064 0.0 
1.04743 1.00734 0.0 
0.976781 1.0093 0.0 
1.03529 1.01335 0.0 
0.978539 1.01122 0.0 
0.903586 1.02036 0.0 
1.02324 1.00948 0.0 
1.02559 1.01589 0.0 
1.01849 1.01644 0.0 
1.03916 1.01627 0.0 
1.0221 1.01326 0.0 
1.02069 1.01558 0.0 
1.02007 1.01514 0.0 
1.01781 1.01698 0.0 
1.01829 1.01469 0.0 
0.969418 1.00572 0.0 
1.02738 1.00813 0.0 
1.01738 1.01606 0.0 
1.01688 1.01149 0.0 
1.01698 1.01211 0.0 
1.03468 1.00881 0.0 
1.01966 1.01256 0.0 
1.03873 1.01476 0.0 
1.01564 1.01038 0.0 
1.03868 1.01743 0.0 
1.03369 1.01854 0.0 
1.03648 1.01825 0.0 
1.03786 1.01752 0.0 
1.01828 1.01306 0.0 
1.02639 1.01282 0.0 
1.03563 1.00773 0.0 
1.04153 1.00844 0.0 
1.03167 1.01395 0.0 
1.01549 1.01503 0.0 
1.0153 1.01426 0.0 
1.01625 1.01094 0.0 
1.0366 1.01511 0.0 
1.02409 1.00865 0.0 
1.03442 1.0133 0.0 
1.02007 1.01439 0.0 
1.04809 1.007 0.0 
1.0277 1.01828 0.0 
1.03832 1.00873 0.0 
1.02016 1.01664 0.0 
1.01622 1.0116 0.0 
1.04135 1.01189 0.0 
1.04279 1.01847 0.0 
1.03989 1.007 0.0 
1.04742 1.00673 0.0 
1.03199 1.01146 0.0 
1.0358 1.01772 0.0 
1.02902 1.00918 0.0 
1.01775 1.01182 0.0 
1.01838 1.01236 0.0 
1.01389 1.01331 0.0 
1.02798 1.01476 0.0 
1.01414 1.01667 0.0 
1.03431 1.02008 0.0 
1.04576 1.0161 0.0 
0.979271 1.00245 0.0 
1.00352 1.02322 0.0 
0.997528 1.03395 0.0 
1.02871 1.01791 0.0 
0.997438 1.02201 0.0 
1.02721 1.00737 0.0 
1.02548 1.01373 0.0 
1.00583 1.02101 0.0 
1.03022 1.0117 0.0 
0.994784 1.03497 0.0 
1.03699 1.01063 0.0 
1.00062 1.02493 0.0 
1.01474 1.01249 0.0 
1.03531 1.0094 0.0 
1.02186 1.01406 0.0 
1.02871 1.00741 0.0 
1.03439 1.01206 0.0 
1.03245 1.00729 0.0 
1.0215 1.01601 0.0 
1.02567 1.01056 0.0 
1.03389 1.0139 0.0 
0.995506 1.02469 0.0 
1.02665 1.01694 0.0 
0.979366 1.00691 0.0 
0.998641 1.02311 0.0 
1.03653 1.0126 0.0 
1.01155 1.01885 0.0 
1.03072 1.018 0.0 
1.03597 1.01485 0.0 
0.981618 1.01355 0.0 
1.03519 1.00706 0.0 
1.03859 1.0132 0.0 
1.04677 1.00636 0.0 
1.02457 1.01454 0.0 
1.03009 1.01233 0.0 
1.04615 1.01136 0.0 
1.02244 1.01581 0.0 
1.0466 1.01198 0.0 
0.884622 0.997182 0.0 
1.01453 1.01389 0.0 
1.03362 1.00955 0.0 
1.00876 1.02516 0.0 
1.01238 1.02441 0.0 
1.02361 1.00996 0.0 
1.04183 1.01113 0.0 
1.04067 1.01239 0.0 
1.04397 1.01143 0.0 
1.04253 1.0158 0.0 
1.00564 1.0374 0.0 
1.01266 1.01659 0.0 
1.01476 1.01453 0.0 
1.04869 1.0125 0.0 
1.04737 1.01276 0.0 
1.04407 1.01588 0.0 
1.03035 1.01111 0.0 
0.900186 1.05189 0.0 
1.03656 1.01765 0.0 
1.04292 1.01119 0.0 
1.04232 1.01392 0.0 
1.01294 1.01292 0.0 
0.967826 1.01721 0.0 
0.985814 1.00375 0.0 
1.05054 1.01206 0.0 
1.01423 1.01269 0.0 
1.04108 1.01506 0.0 
1.02789 1.01134 0.0 
1.03534 1.01505 0.0 
0.964175 0.986346 0.0 
1.04538 1.01676 0.0 
1.04137 1.01575 0.0 
1.04074 1.007 0.0 
1.0045 1.02071 0.0 
1.01234 1.0134 0.0 
1.02494 1.01636 0.0 
1.01318 1.01365 0.0 
1.04502 1.00923 0.0 
1.02627 1.01338 0.0 
1.04807 1.00767 0.0 
1.04088 1.00628 0.0 
1.0037 1.02501 0.0 
1.04338 1.01608 0.0 
0.987425 1.05379 0.0 
1.03763 1.01095 0.0 
0.999037 1.02174 0.0 
1.04055 1.01596 0.0 
1.04374 1.01771 0.0 
1.04068 1.01849 0.0 
1.04305 1.01278 0.0 
1.00476 1.02214 0.0 
1.04343 1.01398 0.0 
1.03023 1.01923 0.0 
1.04717 1.01138 0.0 
1.02652 1.01161 0.0 
1.04019 1.01782 0.0 
1.04041 1.01028 0.0 
1.03973 1.00836 0.0 
1.02085 1.01493 0.0 
1.04027 1.01176 0.0 
1.03993 1.01378 0.0 
1.00472 1.03965 0.0 
1.03934 1.00755 0.0 
0.96915 1.02343 0.0 
1.0394 1.00651 0.0 
1.00815 1.02214 0.0 
1.02864 1.01715 0.0 
1.01051 1.02528 0.0 
1.01553 1.01262 0.0 
1.02846 1.01415 0.0 
1.03404 1.01264 0.0 
1.03077 1.01079 0.0 
1.04685 1.00828 0.0 
1.04449 1.01535 0.0 
1.01001 1.01656 0.0 
1.04039 1.00942 0.0 
1.02939 1.01446 0.0 
1.00829 1.02055 0.0 
1.02901 1.01875 0.0 
1.0088 1.02367 0.0 
1.03296 1.0085 0.0 
1.03412 1.01645 0.0 
1.01455 1.01518 0.0 
1.0109 1.01758 0.0 
1.00192 1.02249 0.0 
1.04108 1.01797 0.0 
0.88789 1.04076 0.0 
1.03913 1.01867 0.0 
1.02459 1.0157 0.0 
1.03394 1.01932 0.0 
1.0394 1.01431 0.0 
1.03489 1.01267 0.0 
0.999154 1.02459 0.0 
1.03596 1.01551 0.0 
1.04872 1.01188 0.0 
1.00975 1.01798 0.0 
1.0441 1.01655 0.0 
1.04112 1.01645 0.0 
1.04276 1.01503 0.0 
1.03593 1.01378 0.0 
1.02894 1.01391 0.0 
1.04288 1.01666 0.0 
0.982477 1.0119 0.0 
1.04028 1.00801 0.0 
1.04952 1.01135 0.0 
1.0258 1.01653 0.0 
1.03324 1.01267 0.0 
0.979964 1.00015 0.0 
1.05002 1.01365 0.0 
1.04488 1.01603 0.0 
1.02541 1.01718 0.0 
1.03243 1.00792 0.0 
1.01549 1.01549 0.0 
1.00064 1.0218 0.0 
1.02377 1.01481 0.0 
1.04689 1.00571 0.0 
1.02522 1.00809 0.0 
1.03551 1.01428 0.0 
1.03905 1.01934 0.0 
1.04463 1.01117 0.0 
1.03245 1.01292 0.0 
1.01026 1.01935 0.0 
1.03241 1.01358 0.0 
1.00324 1.02047 0.0 
1.04758 1.01064 0.0 
0.996077 1.02226 0.0 
1.04581 1.00865 0.0 
1.04865 1.01323 0.0 
1.03807 1.00757 0.0 
1.03449 1.01712 0.0 
1.03958 1.01038 0.0 
1.03631 1.01062 0.0 
1.02931 1.01043 0.0 
1.02354 1.01058 0.0 
1.01768 1.01255 0.0 
1.03788 1.01273 0.0 
1.00007 1.02062 0.0 
1.03811 1.01605 0.0 
0.982428 1.00173 0.0 
1.03801 1.01441 0.0 
1.03489 1.01778 0.0 
[...]
<PointData>
  <DataArray type = "Float64" Name="Vitesse" NumberOfComponents="3" format="ascii">
1.01514 0.0542546 0.0 
0.676704 0.0656099 0.0 
0.989639 0.0354037 0.0 
1.07004 0.0641476 0.0 
0.978795 0.114945 0.0 
0.983757 0.0874914 0.0 
0.974678 0.0405511 0.0 
0.130237 -0.0109963 0.0 
0.977125 0.0463515 0.0 
0.96679 0.0305395 0.0 
0.68544 -0.0113069 0.0 
0.972047 0.123028 0.0 
0.239859 -0.00490455 0.0 
1.12778 0.170807 0.0 
0.98873 0.0237825 0.0 
1.11529 0.0516716 0.0 
1.03518 0.0767078 0.0 
1.02112 0.083008 0.0 
1.17572 0.0532605 0.0 
0.958184 0.0372058 0.0 
1.01487 0.00979459 0.0 
0.953989 0.123432 0.0 
0.345588 -0.0139332 0.0 
1.16105 0.195678 0.0 
0.921322 0.0323147 0.0 
0.85413 0.00201392 0.0 
0.399456 -0.0195881 0.0 
1.20815 0.135339 0.0 
0 0 0.0 
0.881844 0.0903231 0.0 
0.858707 -0.00098142 0.0 
1.20697 0.170444 0.0 
1.17077 0.141603 0.0 
0 0 0.0 
0 0 0.0 
0.250684 0.00524679 0.0 
1.00022 0.113693 0.0 
0.236735 -0.0175688 0.0 
0 0 0.0 
0.582418 0.045856 0.0 
1.19713 0.099609 0.0 
1.10549 0.0974272 0.0 
0.986363 0.0200317 0.0 
0.068464 -0.0069175 0.0 
0.969394 0.11384 0.0 
1.16559 0.145201 0.0 
1.12242 0.157876 0.0 
0.937477 0.0841533 0.0 
1.0297 0.0840802 0.0 
0.685889 -0.00930194 0.0 
0.69581 0.0125007 0.0 
1.1637 0.167962 0.0 
1.21075 0.112685 0.0 
0.704249 0.0238321 0.0 
0.962841 0.0691782 0.0 
1.17583 0.137263 0.0 
0.681097 0.0547558 0.0 
0.625233 -0.00982945 0.0 
0.278609 0.0209441 0.0 
0.98841 0.0412118 0.0 
0.910997 0.107891 0.0 
0.998803 0.120318 0.0 
1.04361 0.116404 0.0 
0.0386553 -0.00526901 0.0 
1.03936 0.0149141 0.0 
1.01804 0.0631957 0.0 
0.990526 0.115634 0.0 
1.18345 0.0876457 0.0 
0.869759 0.069408 0.0 
0.895127 0.0940974 0.0 
0.96199 0.117745 0.0 
0.397393 0.0319064 0.0 
0.86544 0.0706735 0.0 
0.840514 0.0812168 0.0 
1.10211 0.136086 0.0 
1.11006 0.0743171 0.0 
1.21329 0.172272 0.0 
0 0 0.0 
0.874895 0.0791984 0.0 
0.998796 0.0831213 0.0 
1.06965 0.0692667 0.0 
1.04661 0.124467 0.0 
0.837259 0.0828707 0.0 
0.763665 0.0398564 0.0 
0.935836 0.122237 0.0 
0.867743 0.0134413 0.0 
0.417986 -0.00204645 0.0 
0.187936 -0.0158409 0.0 
0.896644 0.0484514 0.0 
1.1159 0.0362157 0.0 
0.391939 0.0292073 0.0 
1.00706 0.148792 0.0 
0.9731 0.0336113 0.0 
1.05932 0.0790132 0.0 
0.348158 -0.0178725 0.0 
0.771062 0.000997983 0.0 
0.39567 0.0229771 0.0 
0.255261 -0.0189897 0.0 
0.762955 0.074775 0.0 
0.209664 -0.0169777 0.0 
0.970453 0.0458624 0.0 
0.530824 0.0452956 0.0 
0.961608 0.0955596 0.0 
1.03701 0.0839076 0.0 
0.718316 0.0751824 0.0 
0.587195 0.0561341 0.0 
1.21423 0.181148 0.0 
1.00901 0.118803 0.0 
0.901854 0.087395 0.0 
0.915499 0.0799802 0.0 
0.143535 0.00979758 0.0 
0.771746 0.0907027 0.0 
0.899827 0.101898 0.0 
0.84111 0.0702668 0.0 
1.21115 0.179793 0.0 
0 0 0.0 
1.19703 0.133024 0.0 
1.18589 0.123664 0.0 
0.967415 0.00473937 0.0 
0.829518 0.0992185 0.0 
0.816453 0.0885474 0.0 
1.03519 0.0909209 0.0 
1.16029 0.0481482 0.0 
1.03811 0.160527 0.0 
1.04125 0.0395527 0.0 
0.792364 -0.00797272 0.0 
0.120519 -0.012795 0.0 
0.83527 0.0897977 0.0 
0.847397 0.0912248 0.0 
0.424201 -0.0219882 0.0 
1.10996 0.171474 0.0 
0.962158 0.152585 0.0 
0.308581 0.025978 0.0 
0.800068 0.0014253 0.0 
1.21053 0.195755 0.0 
1.08865 0.169964 0.0 
1.19002 0.0923678 0.0 
1.1266 0.186604 0.0 
1.15052 0.104863 0.0 
0.792296 0.0475096 0.0 
0.90709 0.137555 0.0 
0.860874 0.115666 0.0 
0.924649 0.00665047 0.0 
1.12797 0.147562 0.0 
1.10321 0.0370313 0.0 
0.853823 0.103359 0.0 
1.12689 0.0498354 0.0 
0.944996 0.151573 0.0 
0.961792 0.033187 0.0 
0.93105 0.149753 0.0 
0.120282 -0.0132472 0.0 
0.889118 0.12652 0.0 
1.1455 0.185792 0.0 
0.867346 0.105222 0.0 
0.771711 -0.00536666 0.0 
0 0 0.0 
0.569371 0.00148664 0.0 
1.13552 0.10931 0.0 
0.822221 0.00737311 0.0 
0.470098 -0.0181325 0.0 
0.370169 0.0179785 0.0 
1.00309 0.111224 0.0 
0.87632 0.117215 0.0 
0.102204 -0.0118513 0.0 
1.02939 0.0651688 0.0 
0.998809 0.152963 0.0 
0.841551 0.101091 0.0 
1.16735 0.0575141 0.0 
0.495781 0.029931 0.0 
0.142702 -0.00912025 0.0 
0.91462 0.144044 0.0 
0.879315 0.128072 0.0 
0.21149 -0.017975 0.0 
0.95515 0.158315 0.0 
0.983707 0.15089 0.0 
0.937982 0.154892 0.0 
0.162388 -0.0156515 0.0 
0.859933 0.0934157 0.0 
1.05895 0.14326 0.0 
0.382633 -0.0202378 0.0 
0.95582 0.0472151 0.0 
1.13419 0.127191 0.0 
1.10001 0.146936 0.0 
1.15377 0.0558926 0.0 
0.967228 0.160452 0.0 
0.868309 0.13008 0.0 
0.0701295 -0.00694117 0.0 
0.922509 0.15178 0.0 
0.0358057 -0.00552823 0.0 
1.09945 0.0282529 0.0 
0.866896 0.0180515 0.0 
0.911946 0.156016 0.0 
0.896062 0.137527 0.0 
0.612403 0.0129767 0.0 
0.85276 0.123835 0.0 
0.847138 0.112542 0.0 
0.903204 0.147506 0.0 
0.485269 0.0426242 0.0 
0.827229 -0.00777397 0.0 
1.11363 0.0710458 0.0 
0.913544 0.126147 0.0 
0 0 0.0 
1.19391 0.0781407 0.0 
0.129858 -0.0129343 0.0 
1.03275 0.154343 0.0 
0.991085 0.158042 0.0 
1.17655 0.16539 0.0 
0.975486 0.111299 0.0 
0.945722 0.16112 0.0 
1.01915 0.155718 0.0 
1.16449 0.0768891 0.0 
0.91008 0.0244946 0.0 
0.93214 0.160138 0.0 
1.13195 0.0877673 0.0 
0.059383 -0.00835665 0.0 
0.857732 0.133449 0.0 
0.269545 0.018548 0.0 
1.17958 0.058899 0.0 
0.734297 0.00659908 0.0 
0.430941 -0.0176077 0.0 
0.0808023 -0.0085241 0.0 
0.836149 0.109253 0.0 
0 0 0.0 
0.978535 0.160415 0.0 
0.914318 0.0555588 0.0 
1.04359 0.146798 0.0 
0.113115 -0.0127645 0.0 
0.882787 0.136572 0.0 
0.876792 0.0347291 0.0 
0.889216 0.150012 0.0 
0.966478 0.0381738 0.0 
0.47986 0.0466219 0.0 
1.1884 0.146749 0.0 
1.20913 0.215541 0.0 
1.0888 0.0453581 0.0 
1.08744 0.154904 0.0 
1.2046 0.194055 0.0 
1.19997 0.199266 0.0 
1.20517 0.219712 0.0 
1.19827 0.217524 0.0 
0.888517 0.0983916 0.0 
0.141032 0.00602766 0.0 
1.20672 0.226821 0.0 
1.02914 0.191261 0.0 
1.08995 0.205292 0.0 
0.219632 -0.00753796 0.0 
1.07262 0.173594 0.0 
0.980897 0.0324321 0.0 
0.920362 0.177894 0.0 
1.14694 0.0572164 0.0 
1.20055 0.0943848 0.0 
1.18342 0.0752254 0.0 
1.15588 0.0628234 0.0 
1.13784 0.203239 0.0 
0.957946 0.0977202 0.0 
0.0783504 -0.00636939 0.0 
0.184077 -0.0147533 0.0 
0.993465 0.0690746 0.0 
1.20132 0.248601 0.0 
1.19784 0.252104 0.0 
0.97844 0.185758 0.0 
1.03428 0.0483758 0.0 
0.290399 0.0233467 0.0 
0.88197 0.0393457 0.0 
1.18051 0.194811 0.0 
0.0934758 -0.011312 0.0 
1.21439 0.136939 0.0 
0.209806 -0.0125704 0.0 
1.21178 0.199728 0.0 
1.05936 0.205882 0.0 
0.622064 -0.00652563 0.0 
1.15369 0.0431027 0.0 
0.0413919 -0.00550141 0.0 
0.0726482 -0.00955033 0.0 
0.66247 0.0276232 0.0 
1.17495 0.0765248 0.0 
0.317233 0.0117351 0.0 
1.0433 0.18555 0.0 
1.08144 0.188591 0.0 
1.18775 0.269486 0.0 
1.11161 0.113482 0.0 
1.18708 0.252264 0.0 
1.20848 0.0946149 0.0 
1.02181 0.0149292 0.0 
0.838484 0.121987 0.0 
1.06901 0.238397 0.0 
1.0392 0.17134 0.0 
1.21007 0.128406 0.0 
1.01786 0.239333 0.0 
0 0 0.0 
1.06931 0.123718 0.0 
1.09159 0.255494 0.0 
0.728656 0.0430074 0.0 
1.02916 0.164448 0.0 
0.478185 -0.00418891 0.0 
1.0474 0.223903 0.0 
1.15642 0.250689 0.0 
0.304599 -0.00730935 0.0 
1.14662 0.169678 0.0 
0 0 0.0 
0.718267 0.0221439 0.0 
0 0 0.0 
1.20802 0.186954 0.0 
0.627787 0.0549672 0.0 
0.956399 0.0513196 0.0 
1.01284 0.215064 0.0 
1.20506 0.142281 0.0 
0.862061 0.143191 0.0 
1.02999 0.2342 0.0 
0.764675 0.0178756 0.0 
1.15222 0.253186 0.0 
1.20501 0.113423 0.0 
1.01982 0.0494305 0.0 
0.899783 0.171981 0.0 
0 0 0.0 
0.817368 0.0154174 0.0 
0.0481281 -0.00713494 0.0 
1.14016 0.144889 0.0 
0.824165 0.055203 0.0 
0.530157 -0.017629 0.0 
1.20243 0.177064 0.0 
0.603958 -0.0156737 0.0 
0.966336 0.0241003 0.0 
1.19377 0.261685 0.0 
0.337299 -0.0019977 0.0 
1.1055 0.215919 0.0 
1.13166 0.209105 0.0 
0.564043 0.0560609 0.0 
0.517827 -0.0122951 0.0 
0.693187 -0.000563809 0.0 
0.547289 -0.0144353 0.0 
1.02752 0.0246695 0.0 
1.07261 0.157465 0.0 
1.17637 0.26468 0.0 
1.19838 0.258068 0.0 
0.655638 -0.016335 0.0 
0.692502 -0.0130823 0.0 
1.02003 0.0193863 0.0 
0.633087 0.0324171 0.0 
0.982118 0.0424385 0.0 
1.16815 0.0712773 0.0 
0.520857 -0.0139499 0.0 
0.860057 0.00802571 0.0 
1.18254 0.282484 0.0 
0.926544 0.112525 0.0 
0.803301 0.174302 0.0 
0.598841 -0.0201125 0.0 
1.17031 0.261531 0.0 
0.982296 0.0240577 0.0 
0.714373 0.0544849 0.0 
1.04381 0.0559055 0.0 
0.880553 0.032161 0.0 
1.06628 0.0212278 0.0 
1.03399 0.029483 0.0 
0.0479664 -0.00588292 0.0 
1.07921 0.260198 0.0 
1.18711 0.290211 0.0 
1.2023 0.155251 0.0 
1.19061 0.278836 0.0 
0.277789 -0.0186983 0.0 
1.02344 0.109331 0.0 
0.140959 -0.0145679 0.0 
0 0 0.0 
1.06997 0.2243 0.0 
1.03929 0.023894 0.0 
1.02641 0.109534 0.0 
0.519435 -0.00371345 0.0 
1.02982 0.245951 0.0 
1.05622 0.0352823 0.0 
1.1228 0.0344494 0.0 
1.16617 0.053215 0.0 
0.72323 -0.00407292 0.0 
1.08025 0.246653 0.0 
0.855938 0.0050069 0.0 
1.21357 0.119651 0.0 
0.528997 -0.0185782 0.0 
0.786067 0.0712271 0.0 
1.15026 0.0516731 0.0 
0.409858 -0.0138026 0.0 
0.169893 -0.0130095 0.0 
1.19107 0.18955 0.0 
0.612823 -0.00463417 0.0 
0.869017 0.0157906 0.0 
1.06766 0.149595 0.0 
0.0833973 -0.00925939 0.0 
0.944726 0.118386 0.0 
0 0 0.0 
1.10935 0.240018 0.0 
1.20049 0.126413 0.0 
1.11678 0.210101 0.0 
1.15323 0.23961 0.0 
1.06067 0.100139 0.0 
0.804028 0.0324362 0.0 
0.573021 0.0245299 0.0 
0.18745 -0.0166794 0.0 
0.97604 0.0132272 0.0 
1.15162 0.284145 0.0 
0.297086 -0.0152907 0.0 
1.07162 0.0958708 0.0 
1.11551 0.25325 0.0 
1.21414 0.127721 0.0 
1.11003 0.226352 0.0 
0.176676 -0.00489367 0.0 
1.14245 0.0787045 0.0 
1.19752 0.257734 0.0 
1.15406 0.26836 0.0 
1.05548 0.244123 0.0 
1.14935 0.0481329 0.0 
0.978707 0.0363895 0.0 
1.17814 0.0623042 0.0 
1.18941 0.155168 0.0 
1.20658 0.0951587 0.0 
0.930526 0.0241152 0.0 
0.795639 0.0277665 0.0 
1.0366 0.224407 0.0 
1.07103 0.0570598 0.0 
0.583146 -0.0186764 0.0 
1.14062 0.271131 0.0 
1.06328 0.0245922 0.0 
1.08195 0.0369687 0.0 
0.964275 0.0169132 0.0 
0.916283 0.0367243 0.0 
1.03222 0.0919819 0.0 
1.07955 0.0303666 0.0 
0.887852 0.176657 0.0 
0.134622 -0.0120476 0.0 
0.519829 -0.020757 0.0 
1.20157 0.148083 0.0 
0.81922 0.0377667 0.0 
0.824354 0.110764 0.0 
0.775801 -0.0127384 0.0 
1.02358 0.0172857 0.0 
1.21152 0.153608 0.0 
0.089383 -0.00442437 0.0 
1.20096 0.247042 0.0 
1.04368 0.248652 0.0 
1.16313 0.156459 0.0 
0.0192342 -0.00342964 0.0 
0.15876 0.00973547 0.0 
0.97413 0.0455613 0.0 
1.18915 0.0656383 0.0 
0.511963 -0.0164773 0.0 
0.864023 0.0470036 0.0 
1.13824 0.255839 0.0 
0.943086 0.0576193 0.0 
1.06688 0.263151 0.0 
0.440592 -0.02031 0.0 
1.00865 0.232742 0.0 
0.219144 -0.017615 0.0 
0.738609 -0.0125977 0.0 
0.0779161 -0.00781138 0.0 
1.16594 0.0812929 0.0 
0.426588 -0.0118058 0.0 
0.481773 -0.00245114 0.0 
0.534794 0.0278146 0.0 
0.683222 0.0730458 0.0 
1.11194 0.203053 0.0 
0.766199 0.0135627 0.0 
1.03628 0.258349 0.0 
1.08558 0.0491566 0.0 
0.814397 0.133343 0.0 
0.956877 0.0323431 0.0 
1.18157 0.082714 0.0 
1.16565 0.231553 0.0 
0.910295 0.0113203 0.0 
1.19969 0.0798914 0.0 
0.536129 0.0373863 0.0 
0.144714 -0.0109825 0.0 
1.09835 0.234937 0.0 
0.203669 -0.0176086 0.0 
1.02534 0.269669 0.0 
1.01342 0.259447 0.0 
0.0863037 -0.0107557 0.0 
0.0278365 -0.00455806 0.0 
0.936734 0.0056912 0.0 
1.12379 0.135217 0.0 
0.429249 -0.00740721 0.0 
0.580027 0.00380719 0.0 
0 0 0.0 
0.904347 0.0841297 0.0 
1.00791 0.268329 0.0 
0.66864 0.00497321 0.0 
1.02639 0.0412392 0.0 
0.0902612 -0.0109847 0.0 
1.04225 0.270291 0.0 
1.09185 0.0421155 0.0 
0.594978 -0.00963077 0.0 
1.07613 0.0761378 0.0 
0.923981 0.195577 0.0 
1.00207 0.251182 0.0 
0.897925 0.119763 0.0 
0.937603 0.0163093 0.0 
0.961273 0.230359 0.0 
0.103319 -0.0107524 0.0 
1.17961 0.178804 0.0 
1.04722 0.082114 0.0 
0 0 0.0 
0.0638939 -0.00877222 0.0 
1.02227 0.12424 0.0 
0.993616 0.236856 0.0 
0 0 0.0 
0.771487 -0.00271358 0.0 
0.327426 -0.0186313 0.0 
0.749149 0.0139524 0.0 
0.513282 -0.00898146 0.0 
0.596469 -0.0173252 0.0 
0.0741951 -0.00954921 0.0 
1.19763 0.183821 0.0 
0.164124 -0.0158134 0.0 
0.210203 -0.0161335 0.0 
0.342562 -0.00411941 0.0 
0.977623 0.24296 0.0 
0.60276 0.0380676 0.0 
0.832409 0.0201205 0.0 
0.721962 0.00742608 0.0 
1.0132 0.247682 0.0 
1.12858 0.0589286 0.0 
0.985984 0.00919815 0.0 
0.225481 -0.0120449 0.0 
0.160429 -0.015425 0.0 
1.16748 0.119672 0.0 
0.917115 -0.0013327 0.0 
0 0 0.0 
0.252275 -0.0192284 0.0 
0.413867 -0.0160622 0.0 
0.141338 -0.0102418 0.0 
0.08176 -0.010042 0.0 
0.741757 0.0524146 0.0 
0.441343 -0.00246958 0.0 
1.08753 0.138337 0.0 
0.761724 -0.0079711 0.0 
0.654333 0.0225894 0.0 
1.06731 0.251967 0.0 
0.110816 -0.00648164 0.0 
0.865575 0.0540789 0.0 
0.927473 0.010317 0.0 
0.40421 -0.011024 0.0 
0.496908 -0.00756238 0.0 
0.439238 -0.0140372 0.0 
0.616281 -0.00186081 0.0 
1.08631 0.0559418 0.0 
1.12464 0.0619613 0.0 
0.988934 0.0394416 0.0 
1.19292 0.259101 0.0 
0.911253 0.0298697 0.0 
0.295584 -0.0134312 0.0 
0.828642 0.0222629 0.0 
0.985006 0.225182 0.0 
0.834177 0.0460761 0.0 
1.20472 0.0864287 0.0 
1.19996 0.0850324 0.0 
1.20143 0.162349 0.0 
0.560754 0.0118498 0.0 
0.0475848 -0.00622331 0.0 
0.969157 0.208794 0.0 
0.653318 0.0384217 0.0 
1.1406 0.083567 0.0 
1.06497 0.195734 0.0 
1.1524 0.0657281 0.0 
0.943517 0.216062 0.0 
0.0691354 -0.00903373 0.0 
1.02352 0.256224 0.0 
0.118199 -0.00550147 0.0 
0.993481 0.26597 0.0 
1.04318 0.210979 0.0 
0.567241 0.0162286 0.0 
0 0 0.0 
0.998852 0.220495 0.0 
0.17266 -0.0139632 0.0 
0.942858 0.202729 0.0 
0.43702 0.00512892 0.0 
0.976112 0.215498 0.0 
1.01344 0.149808 0.0 
1.1711 0.183475 0.0 
1.1477 0.135431 0.0 
0 0 0.0 
1.03233 0.216412 0.0 
0.989604 0.0174505 0.0 
0.760559 0.0210624 0.0 
1.13272 0.25432 0.0 
1.11433 0.0639524 0.0 
1.1457 0.157589 0.0 
0.513341 -0.0197998 0.0 
0.947493 0.228299 0.0 
0.996651 0.0310696 0.0 
0.559314 0.00438575 0.0 
0.951576 0.147672 0.0 
1.20978 0.163348 0.0 
1.02747 0.354113 0.0 
1.19341 0.26743 0.0 
0.413318 -0.0213299 0.0 
1.19051 0.139033 0.0 
0.412317 0.00907152 0.0 
0 0 0.0 
1.05624 0.048372 0.0 
1.00841 0.13717 0.0 
0.276039 -0.0198132 0.0 
0.0678156 -0.00528731 0.0 
0 0 0.0 
0.750895 0.0330293 0.0 
0.242638 -0.0157318 0.0 
1.18621 0.0722499 0.0 
0 0 0.0 
1.05808 0.272962 0.0 
0.175414 0.0035293 0.0 
0.0686144 -0.0066615 0.0 
0.464244 -0.0193307 0.0 
0.36667 0.0105033 0.0 
1.19188 0.110697 0.0 
0.149057 0.00750125 0.0 
0.0738004 -0.00888451 0.0 
1.20991 0.103838 0.0 
0 0 0.0 
1.13955 0.0729359 0.0 
1.067 0.0317581 0.0 
0.970663 0.229383 0.0 
0.888658 0.0440265 0.0 
0.794899 0.0551062 0.0 
0.317062 -0.019516 0.0 
0.65317 0.00592189 0.0 
0.924019 0.00227275 0.0 
0.13326 -0.00218124 0.0 
0.113502 0.000895954 0.0 
0.910435 0.301996 0.0 
0.679642 -0.0166154 0.0 
1.1634 0.130485 0.0 
0.943298 0.347088 0.0 
0.804018 0.0698217 0.0 
1.20288 0.0901058 0.0 
1.1816 0.304838 0.0 
0.255984 0.016397 0.0 
0.483254 0.0035638 0.0 
0.519154 -0.0105789 0.0 
1.03672 0.13223 0.0 
0.581659 -0.0148593 0.0 
1.19149 0.165237 0.0 
0.161794 -0.00871219 0.0 
0.510489 0.0170681 0.0 
0.33803 -0.0161103 0.0 
1.21188 0.143286 0.0 
0.684863 -0.00778076 0.0 
1.15502 0.124697 0.0 
1.11804 0.238335 0.0 
0.88506 0.274473 0.0 
1.04747 0.111421 0.0 
0.0307363 -0.00486538 0.0 
1.18461 0.10122 0.0 
0.197959 9.75658e-05 0.0 
0.972425 0.0266326 0.0 
0.478792 0.0101446 0.0 
0.927469 0.367638 0.0 
0.881167 0.0854312 0.0 
0 0 0.0 
1.19028 0.081469 0.0 
0.179299 -0.00296586 0.0 
0.138809 0.00904719 0.0 
1.1001 0.104885 0.0 
1.17345 0.154089 0.0 
0.267088 -0.0176172 0.0 
1.13587 0.0389567 0.0 
0.248288 -0.0145269 0.0 
0.894815 0.219588 0.0 
0.907443 0.342349 0.0 
0.901027 0.294346 0.0 
1.16146 0.0980334 0.0 
0.590971 -0.000818816 0.0 
0.666462 0.0144854 0.0 
0.407648 0.0160627 0.0 
0 0 0.0 
0.819732 0.0253758 0.0 
0.424945 0.0370781 0.0 
0.303366 -0.00159923 0.0 
0.988801 0.251979 0.0 
0.890964 0.105753 0.0 
1.01438 0.0302496 0.0 
0.15728 -0.0150129 0.0 
0.40342 -0.0100782 0.0 
1.20498 0.100001 0.0 
1.18298 0.0950174 0.0 
0.891471 0.0619314 0.0 
1.1079 0.0783505 0.0 
0 0 0.0 
0.353475 -0.00771557 0.0 
0.876635 0.0297947 0.0 
0.990605 0.0223956 0.0 
0.786724 0.00670373 0.0 
0.916587 0.0576669 0.0 
0.798944 0.010663 0.0 
0 0 0.0 
0.0147932 -0.00277704 0.0 
1.15121 0.0702306 0.0 
0.368532 -0.0191878 0.0 
1.16518 0.258291 0.0 
0.851125 0.10881 0.0 
0.286635 0.0160247 0.0 
0.113114 -0.0124777 0.0 
0.941724 0.0770801 0.0 
0.678901 -0.00515638 0.0 
0.247769 0.00363717 0.0 
1.1292 0.0563211 0.0 
0.0232064 -0.00399924 0.0 
0.865509 -0.00306199 0.0 
1.05291 0.258642 0.0 
0 0 0.0 
1.13719 0.0426387 0.0 
0.209481 -0.0145452 0.0 
1.2108 0.120657 0.0 
1.17863 0.105026 0.0 
0.978404 0.124026 0.0 
1.18756 0.116535 0.0 
0.99178 0.098096 0.0 
0.881662 0.104596 0.0 
1.08624 0.286806 0.0 
0 0 0.0 
1.18332 0.285785 0.0 
0.13772 0.00788675 0.0 
0.274282 -0.00536603 0.0 
0 0 0.0 
1.15457 0.119432 0.0 
0.528553 0.0159314 0.0 
0.73666 0.0890047 0.0 
0.9187 0.292668 0.0 
0.233247 -0.0099311 0.0 
0.431644 0.00229063 0.0 
1.20296 0.11961 0.0 
0.663465 0.0316143 0.0 
0.350199 -0.0214405 0.0 
0.883996 0.232878 0.0 
0.910277 0.234834 0.0 
0.979629 0.0297798 0.0 
0.451051 0.0142964 0.0 
1.17115 0.115129 0.0 
0.716238 0.0638383 0.0 
0.391472 -0.00772126 0.0 
0 0 0.0 
0.304234 -0.0170918 0.0 
0.881932 0.0946221 0.0 
1.17001 0.087618 0.0 
0.24624 0.0107648 0.0 
0.534243 0.00484886 0.0 
1.12326 0.0444873 0.0 
0.87608 0.0432673 0.0 
0.379679 0.00443356 0.0 
1.19812 0.106394 0.0 
0.832269 0.0689812 0.0 
0.164177 -0.0151858 0.0 
1.09756 0.0309906 0.0 
0 0 0.0 
0.920721 0.312924 0.0 
0.902875 0.0686538 0.0 
0.708742 0.0024599 0.0 
1.0738 0.112816 0.0 
0.799127 0.0910132 0.0 
0.111549 -0.00136674 0.0 
1.03223 0.37233 0.0 
1.07485 0.273894 0.0 
1.06115 0.143124 0.0 
1.17243 0.0680831 0.0 
0.292339 -0.0122375 0.0 
0.730661 0.000177458 0.0 
0.0709508 -0.00245879 0.0 
0.887494 0.0242647 0.0 
0.0315441 -0.00496588 0.0 
0.944614 0.374454 0.0 
1.18248 0.0671835 0.0 
1.10598 0.26222 0.0 
1.02228 0.224739 0.0 
0.869012 0.222879 0.0 
1.12553 0.318851 0.0 
1.01846 0.125501 0.0 
1.14066 0.216375 0.0 
0.185197 -0.0132754 0.0 
0 0 0.0 
0.263947 0.000452878 0.0 
1.06637 0.156904 0.0 
0.245743 0.00871891 0.0 
1.09523 0.0646459 0.0 
0 0 0.0 
0.518488 0.022761 0.0 
0.168652 -0.0108396 0.0 
0.964049 0.0398443 0.0 
0.121939 0.00219227 0.0 
1.15573 0.183745 0.0 
0.957737 0.352245 0.0 
0.949234 0.112109 0.0 
1.11786 0.119002 0.0 
0.974086 0.358243 0.0 
1.17622 0.31633 0.0 
1.14314 0.107528 0.0 
0.899043 0.233592 0.0 
0.0854253 -0.00412681 0.0 
0.27565 0.0769019 0.0 
0.109256 0.00368099 0.0 
0.342322 -0.0205415 0.0 
1.02838 0.0995572 0.0 
1.17208 0.107286 0.0 
0 0 0.0 
1.00063 0.281353 0.0 
1.20532 0.227417 0.0 
0.099761 -0.00155678 0.0 
0.896471 0.112258 0.0 
0.801047 0.228351 0.0 
0.0412276 -0.00627429 0.0 
0.0647938 -0.00849206 0.0 
0.191317 -0.00662153 0.0 
1.20573 0.106156 0.0 
0.93454 0.124907 0.0 
0.944895 0.0224537 0.0 
0.437349 0.0295914 0.0 
1.0501 0.177449 0.0 
0.979973 0.0111711 0.0 
0.955287 0.210122 0.0 
1.0946 0.122918 0.0 
0.929007 0.181031 0.0 
0.45551 0.0231046 0.0 
0.61381 -0.0118851 0.0 
0.992765 0.320384 0.0 
0.13376 -0.0140459 0.0 
1.10152 0.206409 0.0 
0.905089 0.014995 0.0 
1.03541 0.277234 0.0 
1.01145 0.0668915 0.0 
0 0 0.0 
0.607566 -0.0186386 0.0 
1.01746 0.0582995 0.0 
0.747641 0.242232 0.0 
1.18836 0.174055 0.0 
1.01099 0.129405 0.0 
0 0 0.0 
0.926586 0.0975618 0.0 
0.260055 -0.0197294 0.0 
1.10426 0.0917865 0.0 
1.21264 0.189227 0.0 
0.334119 0.0217955 0.0 
0.485017 0.0371756 0.0 
1.16695 0.061726 0.0 
0.323085 0.00552192 0.0 
0.923792 0.349355 0.0 
0.229627 -0.00272046 0.0 
1.09688 0.112213 0.0 
0.313671 -0.0205962 0.0 
1.19453 0.087995 0.0 
0.335131 -0.0106997 0.0 
1.18147 0.129699 0.0 
0 0 0.0 
0 0 0.0 
1.10461 0.0863716 0.0 
0.976448 0.377642 0.0 
1.12288 0.112817 0.0 
1.15126 0.328632 0.0 
0.958417 0.0556059 0.0 
0.996834 0.401164 0.0 
0 0 0.0 
0.936007 0.333137 0.0 
0.262095 -0.0164339 0.0 
0.144353 -0.0139721 0.0 
0.910346 0.182592 0.0 
0.607211 0.0426172 0.0 
1.14019 0.0960424 0.0 
0.138309 0.0101459 0.0 
0.995013 0.38344 0.0 
0.959824 0.0735473 0.0 
0.664214 0.0119514 0.0 
0 0 0.0 
1.15749 0.313232 0.0 
0.640221 0.0701252 0.0 
1.05097 0.0372333 0.0 
1.11716 0.368212 0.0 
1.0981 0.054907 0.0 
0.0499103 -0.00408357 0.0 
0.990517 0.13948 0.0 
0.277394 -0.0106818 0.0 
1.19341 0.0720918 0.0 
1.16432 0.0925576 0.0 
1.02101 0.118322 0.0 
0.0327642 -0.00535054 0.0 