<VTKFile type="UnstructuredGrid" version="0.1" byte_order="LittleEndian">
  <UnstructuredGrid>
    <Piece NumberOfPoints="16168" NumberOfCells="31764">
      <Points>
        <DataArray type = "Float64" NumberOfComponents="3" format="ascii">
1.27648 1.03335 0.0 
1.12123 1.0261 0.0 
1.1739 1.04068 0.0 
1.10631 1.03526 0.0 
1.13289 1.04048 0.0 
1.08817 1.0332 0.0 
1.08903 1.03785 0.0 
1.12707 1.03982 0.0 
1.26946 1.01333 0.0 
1.12016 1.03861 0.0 
1.25665 1.01128 0.0 
1.24791 1.00775 0.0 
1.19304 0.992433 0.0 
1.25264 1.01018 0.0 
1.27661 1.01804 0.0 
1.2777 1.01622 0.0 
1.27219 1.01485 0.0 
1.27727 1.01507 0.0 
1.27471 1.01476 0.0 
1.27329 1.01422 0.0 
1.27399 1.01532 0.0 
1.27963 1.01681 0.0 
1.27633 1.01684 0.0 
1.27489 1.01632 0.0 
1.24969 1.00996 0.0 
1.24881 1.00878 0.0 
1.18711 1.00941 0.0 
1.19481 1.01199 0.0 
1.20491 1.01798 0.0 
1.22408 1.01946 0.0 
1.19316 1.0178 0.0 
1.19624 1.00697 0.0 
1.19619 1.00113 0.0 
1.09497 1.02422 0.0 
1.18478 1.01298 0.0 
1.19686 0.994464 0.0 
1.20079 1.01064 0.0 
1.12337 1.031 0.0 
1.21193 1.00206 0.0 
1.17858 1.01056 0.0 
1.12644 1.02781 0.0 
1.19583 1.00393 0.0 
1.20951 1.01028 0.0 
1.18512 1.00766 0.0 
1.18599 1.01016 0.0 
1.20646 1.01195 0.0 
1.23095 1.01916 0.0 
1.20939 1.00122 0.0 
1.22066 1.02068 0.0 
1.20037 0.996864 0.0 
1.21255 1.01043 0.0 
1.2068 1.00912 0.0 
1.20706 1.01927 0.0 
1.16469 1.02171 0.0 
1.2184 1.02318 0.0 
1.20819 1.00323 0.0 
1.20689 1.00128 0.0 
1.22504 1.0052 0.0 
1.2051 1.02613 0.0 
1.20568 1.01623 0.0 
1.2104 1.00756 0.0 
1.19028 1.00693 0.0 
1.20892 1.00654 0.0 
1.11682 1.02925 0.0 
1.21752 1.00872 0.0 
1.19128 1.0118 0.0 
1.28662 1.01925 0.0 
1.23504 1.00517 0.0 
1.20711 1.0176 0.0 
1.14271 1.02457 0.0 
1.08215 1.03684 0.0 
1.27773 1.01733 0.0 
1.23787 1.01014 0.0 
1.22714 1.03821 0.0 
1.22591 1.0105 0.0 
1.28747 1.02071 0.0 
1.22008 1.01257 0.0 
1.21724 1.01723 0.0 
1.19882 1.0103 0.0 
1.218 1.00548 0.0 
1.288 1.01766 0.0 
1.20897 0.998671 0.0 
1.16807 1.03055 0.0 
1.21434 1.03196 0.0 
1.19206 1.00313 0.0 
1.12271 1.03418 0.0 
1.19287 1.02243 0.0 
1.17958 1.0115 0.0 
1.19506 1.00182 0.0 
1.19072 0.996758 0.0 
1.18427 1.00855 0.0 
1.20484 1.00093 0.0 
1.28271 1.0171 0.0 
1.22013 1.01761 0.0 
1.19841 1.00745 0.0 
1.19634 1.00998 0.0 
1.19067 0.993396 0.0 
1.12468 1.02846 0.0 
1.22359 1.00849 0.0 
1.14296 1.03537 0.0 
1.22191 1.00452 0.0 
1.20946 1.01731 0.0 
1.25441 1.01134 0.0 
1.14818 1.02315 0.0 
1.20588 1.017 0.0 
1.10201 1.02988 0.0 
1.21131 0.997835 0.0 
1.21488 1.00785 0.0 
1.18205 1.01103 0.0 
1.19581 1.00468 0.0 
1.23773 1.00832 0.0 
1.21437 1.01535 0.0 
1.30259 1.02602 0.0 
1.16212 1.02203 0.0 
1.25546 1.02156 0.0 
1.19204 1.00605 0.0 
1.20524 1.00961 0.0 
1.28913 1.01823 0.0 
1.20954 1.00942 0.0 
1.29601 1.02276 0.0 
1.21782 1.0107 0.0 
1.2325 1.00514 0.0 
1.20695 1.01054 0.0 
1.18678 1.00736 0.0 
1.18795 1.00747 0.0 
1.19229 1.03041 0.0 
1.25543 1.02778 0.0 
1.2148 1.01096 0.0 
1.19054 1.00746 0.0 
1.14799 1.02662 0.0 
1.12612 1.03025 0.0 
1.29424 1.0216 0.0 
1.21523 1.00438 0.0 
1.10025 1.0281 0.0 
1.2349 1.02455 0.0 
1.18846 1.01067 0.0 
1.20451 1.00705 0.0 
1.30591 1.02411 0.0 
1.22776 1.02235 0.0 
1.22383 1.01865 0.0 
1.20323 0.998627 0.0 
1.22251 1.00783 0.0 
1.19332 0.995472 0.0 
1.2632 1.02207 0.0 
1.28957 1.01992 0.0 
1.28421 1.03441 0.0 
1.19472 0.99454 0.0 
1.20595 1.00721 0.0 
1.19905 0.998962 0.0 
1.20413 1.00912 0.0 
1.19824 1.00637 0.0 
1.15848 1.0405 0.0 
1.09914 1.03439 0.0 
1.21003 1.00592 0.0 
1.19501 1.03487 0.0 
1.22378 1.01137 0.0 
1.18433 1.02365 0.0 
1.19586 1.00249 0.0 
1.30205 1.02758 0.0 
1.2131 1.0175 0.0 
1.19401 1.00808 0.0 
1.21927 1.01332 0.0 
1.19567 1.00317 0.0 
1.27051 1.01438 0.0 
1.19453 1.00671 0.0 
1.20756 1.01403 0.0 
1.1651 1.02321 0.0 
1.19017 1.00152 0.0 
1.19632 0.997432 0.0 
1.16637 1.02242 0.0 
1.21263 1.00048 0.0 
1.21643 1.01362 0.0 
1.23174 1.01818 0.0 
1.30354 1.02518 0.0 
1.21688 1.00185 0.0 
1.18781 1.00836 0.0 
1.19323 1.00167 0.0 
1.28677 1.01866 0.0 
1.21082 1.01299 0.0 
1.21772 1.01654 0.0 
1.19726 1.00028 0.0 
1.22568 1.00763 0.0 
1.18107 1.01054 0.0 
1.2026 1.00211 0.0 
1.20103 1.00998 0.0 
1.19943 1.00278 0.0 
1.21411 1.00004 0.0 
1.10214 1.03212 0.0 
1.23724 1.01806 0.0 
1.21737 1.01285 0.0 
1.20175 0.996438 0.0 
1.23644 1.00755 0.0 
1.20288 1.00504 0.0 
1.19721 1.00363 0.0 
1.20762 0.99804 0.0 
1.20244 1.0006 0.0 
1.178 1.02563 0.0 
1.20113 0.998308 0.0 
1.19409 1.01055 0.0 
1.19178 1.00865 0.0 
1.29352 1.02034 0.0 
1.2201 1.00419 0.0 
1.1813 1.01266 0.0 
1.22595 1.02692 0.0 
1.19651 0.995113 0.0 
1.28147 1.01823 0.0 
1.1335 1.02661 0.0 
1.21372 1.0161 0.0 
1.22003 1.00754 0.0 
1.22354 1.0172 0.0 
1.19765 1.0057 0.0 
1.20144 1.00933 0.0 
1.21928 1.01534 0.0 
1.19013 1.03941 0.0 
1.22053 1.00588 0.0 
1.11365 1.03478 0.0 
1.20846 1.01093 0.0 
1.19101 0.996161 0.0 
1.19845 0.997327 0.0 
1.17069 1.02538 0.0 
1.29245 1.02286 0.0 
1.21035 1.01103 0.0 
1.21819 1.02114 0.0 
1.21159 0.999889 0.0 
1.29838 1.03039 0.0 
1.19325 0.998648 0.0 
1.19152 0.997353 0.0 
1.27157 1.02564 0.0 
1.20002 1.0019 0.0 
1.19985 1.02821 0.0 
1.21453 1.03031 0.0 
1.15331 1.02339 0.0 
1.20323 1.01641 0.0 
1.22256 1.00382 0.0 
1.25254 1.01432 0.0 
1.19872 1.00953 0.0 
1.22144 1.01378 0.0 
1.21649 1.02433 0.0 
1.18124 1.01199 0.0 
1.21067 1.03069 0.0 
1.21198 1.00113 0.0 
1.2073 1.00844 0.0 
1.20133 1.00549 0.0 
1.2062 0.998643 0.0 
1.20748 1.00037 0.0 
1.2016 1.00276 0.0 
1.19183 1.01632 0.0 
1.14379 1.0373 0.0 
1.13755 1.03229 0.0 
1.22252 1.00513 0.0 
1.20174 0.99942 0.0 
1.21064 1.02751 0.0 
1.16379 1.01988 0.0 
1.20423 0.996695 0.0 
1.19364 1.00249 0.0 
1.21226 1.01488 0.0 
1.19776 0.998004 0.0 
1.16461 1.01913 0.0 
1.24489 1.02514 0.0 
1.19686 0.998895 0.0 
1.20315 1.00696 0.0 
1.15166 1.02551 0.0 
1.24186 1.01472 0.0 
1.20986 1.00278 0.0 
1.21044 1.00048 0.0 
1.18243 1.04001 0.0 
1.29338 1.01844 0.0 
1.27317 1.0169 0.0 
1.17525 1.01756 0.0 
1.20635 1.00356 0.0 
1.22043 1.0198 0.0 
1.27866 1.02027 0.0 
1.21869 1.00268 0.0 
1.1982 0.996674 0.0 
1.17687 1.03713 0.0 
1.11758 1.03324 0.0 
1.19113 1.00659 0.0 
1.10122 1.02635 0.0 
1.22748 1.01376 0.0 
1.1039 1.02628 0.0 
1.27047 1.01746 0.0 
1.20802 1.00556 0.0 
1.19317 0.996689 0.0 
1.18218 1.01404 0.0 
1.20041 1.00102 0.0 
1.286 1.01986 0.0 
1.22017 1.00674 0.0 
1.21247 1.00898 0.0 
1.19382 1.00908 0.0 
1.21325 1.00156 0.0 
1.21454 1.00108 0.0 
1.20598 1.00537 0.0 
1.20272 0.997857 0.0 
1.09784 1.02831 0.0 
1.21588 1.02727 0.0 
1.09555 1.02519 0.0 
1.18455 1.01199 0.0 
1.16864 1.03843 0.0 
1.20661 1.02006 0.0 
1.19498 0.999774 0.0 
1.20472 1.0001 0.0 
1.22246 1.01532 0.0 
1.15584 1.0251 0.0 
1.19384 0.994988 0.0 
1.20248 1.00617 0.0 
1.20476 0.999202 0.0 
1.28729 1.03258 0.0 
1.1917 1.00547 0.0 
1.2 1.00443 0.0 
1.21455 1.00199 0.0 
1.21296 1.02435 0.0 
1.20978 0.99815 0.0 
1.19827 1.00107 0.0 
1.10943 1.02769 0.0 
1.21205 1.00398 0.0 
1.18688 1.00885 0.0 
1.19543 0.992735 0.0 
1.14621 1.02359 0.0 
1.18502 1.01376 0.0 
1.26715 1.02068 0.0 
1.1574 1.02247 0.0 
1.20299 1.00338 0.0 
1.14278 1.02517 0.0 
1.18504 1.00912 0.0 
1.21158 1.01672 0.0 
1.12958 1.02681 0.0 
1.21783 1.00358 0.0 
1.09277 1.03214 0.0 
1.18956 1.00866 0.0 
1.20254 1.0014 0.0 
1.19864 0.996093 0.0 
1.20058 1.01647 0.0 
1.19902 0.995177 0.0 
1.12367 1.02939 0.0 
1.19746 1.00202 0.0 
1.20137 1.00392 0.0 
1.09926 1.02561 0.0 
1.30118 1.02686 0.0 
1.194 1.00742 0.0 
1.20078 1.005 0.0 
1.18909 1.00989 0.0 
1.15076 1.03711 0.0 
1.17772 1.0142 0.0 
1.18287 1.03547 0.0 
1.12135 1.02677 0.0 
1.21751 1.01921 0.0 
1.2033 1.00977 0.0 
1.21154 1.00975 0.0 
1.20682 1.01569 0.0 
1.22199 1.01299 0.0 
1.20837 1.01812 0.0 
1.19199 1.00187 0.0 
1.10464 1.03232 0.0 
1.16208 1.03898 0.0 
1.16417 1.02879 0.0 
1.19026 1.00612 0.0 
1.13149 1.03565 0.0 
1.10098 1.03167 0.0 
1.18573 1.00707 0.0 
1.22392 1.01427 0.0 
1.20523 1.00823 0.0 
1.18618 1.02447 0.0 
1.17502 1.0261 0.0 
1.19988 1.00021 0.0 
1.21833 1.01412 0.0 
1.15972 1.02127 0.0 
1.2388 1.00283 0.0 
1.2268 1.01473 0.0 
1.2096 1.02524 0.0 
1.193 1.00036 0.0 
1.21139 1.01362 0.0 
1.20641 1.02406 0.0 
1.20675 1.00665 0.0 
1.20282 1.00851 0.0 
1.22009 1.00502 0.0 
1.19794 1.00441 0.0 
1.14677 1.02498 0.0 
1.201 1.00707 0.0 
1.19392 0.997342 0.0 
1.2029 1.00769 0.0 
1.26749 1.01889 0.0 
1.19151 1.00099 0.0 
1.29298 1.03312 0.0 
1.19193 0.999514 0.0 
1.28343 1.03356 0.0 
1.19597 1.00877 0.0 
1.20906 0.99752 0.0 
1.21335 1.01387 0.0 
1.22771 1.01279 0.0 
1.19539 0.993233 0.0 
1.21712 1.00407 0.0 
1.09732 1.02593 0.0 
1.09027 1.03886 0.0 
1.10242 1.03104 0.0 
1.30231 1.0222 0.0 
1.19275 1.00385 0.0 
1.19916 1.00366 0.0 
1.09657 1.02466 0.0 
1.22759 1.00625 0.0 
1.11777 1.0262 0.0 
1.29251 1.01943 0.0 
1.10598 1.02883 0.0 
1.22441 1.02153 0.0 
1.20378 0.996057 0.0 
1.11921 1.02712 0.0 
1.28327 1.01764 0.0 
1.17734 1.02293 0.0 
1.17991 1.01013 0.0 
1.11551 1.02841 0.0 
1.20026 0.997691 0.0 
1.20494 1.00183 0.0 
1.1893 1.00735 0.0 
1.09081 1.02811 0.0 
1.18722 1.00687 0.0 
1.23705 1.0134 0.0 
1.15475 1.02837 0.0 
1.1712 1.02641 0.0 
1.18909 0.994801 0.0 
1.19722 0.999635 0.0 
1.14921 1.02389 0.0 
1.22966 1.01028 0.0 
1.17285 1.02459 0.0 
1.21315 0.998078 0.0 
1.15673 1.02294 0.0 
1.20922 1.01348 0.0 
1.24813 1.01346 0.0 
1.20642 0.99638 0.0 
1.23033 1.0112 0.0 
1.19456 0.997905 0.0 
1.22462 1.02268 0.0 
1.20031 1.01373 0.0 
1.12078 1.03185 0.0 
1.20429 0.997383 0.0 
1.15137 1.03083 0.0 
1.14937 1.02887 0.0 
1.20258 0.995434 0.0 
1.12176 1.03018 0.0 
1.11391 1.02584 0.0 
1.19524 1.04204 0.0 
1.1828 1.0282 0.0 
1.21251 1.02092 0.0 
1.20836 1.02085 0.0 
1.17878 1.01498 0.0 
1.29499 1.02434 0.0 
1.27018 1.01958 0.0 
1.11855 1.03464 0.0 
1.1964 1.00635 0.0 
1.21293 1.01305 0.0 
1.17085 1.02941 0.0 
1.09905 1.02656 0.0 
1.23059 1.00935 0.0 
1.11586 1.03185 0.0 
1.13522 1.02575 0.0 
1.13946 1.02515 0.0 
1.30899 1.0297 0.0 
1.20292 1.01041 0.0 
1.26553 1.01782 0.0 
1.20039 1.01175 0.0 
1.09727 1.02524 0.0 
1.1084 1.02606 0.0 
1.1511 1.02363 0.0 
1.09146 1.03737 0.0 
1.17973 1.0267 0.0 
1.1623 1.02669 0.0 
1.21702 1.01826 0.0 
1.16875 1.02443 0.0 
1.17316 1.01698 0.0 
[...]
<PointData>
  <DataArray type = "Float64" Name="Vitesse" NumberOfComponents="3" format="ascii">
0.890568 -0.0711356 0.0 
0.40629 -0.0094412 0.0 
1.09718 -0.0368513 0.0 
1.02541 0.00459282 0.0 
1.10674 -0.000114726 0.0 
1.00471 0.0216812 0.0 
1.15425 0.0394349 0.0 
1.10327 0.00208372 0.0 
0.13789 -0.109958 0.0 
1.09172 0.00375357 0.0 
0.10084 -0.133514 0.0 
0.0306367 -0.144335 0.0 
-0.121835 0.0746576 0.0 
0.0789066 -0.138797 0.0 
0.310233 -0.0873057 0.0 
0.230267 -0.0883446 0.0 
0.186449 -0.101833 0.0 
0.186882 -0.0907194 0.0 
0.179021 -0.0967475 0.0 
0.161595 -0.100678 0.0 
0.200416 -0.0975085 0.0 
0.251502 -0.0835189 0.0 
0.258154 -0.0901089 0.0 
0.239009 -0.0938132 0.0 
0.0792654 -0.140512 0.0 
0.0516919 -0.142823 0.0 
0.0426503 0.0525958 0.0 
0.135961 0.016293 0.0 
0.357383 -0.0447458 0.0 
0.455844 -0.101747 0.0 
0.299218 -0.00370205 0.0 
0.0181106 0.026361 0.0 
-0.0886277 0.0402901 0.0 
0.228052 -0.0145307 0.0 
0.118991 0.0430111 0.0 
-0.127514 0.0506424 0.0 
0.119926 -0.0040392 0.0 
0.751355 -0.0100131 0.0 
-0.0530151 -0.0471681 0.0 
0.032777 0.0644502 0.0 
0.530011 -0.0102066 0.0 
-0.0445385 0.0358206 0.0 
0.12898 -0.0426013 0.0 
-0.00386242 0.0646079 0.0 
0.0552789 0.0526167 0.0 
0.170743 -0.0323485 0.0 
0.447598 -0.111755 0.0 
-0.0671802 -0.0327054 0.0 
0.498141 -0.096838 0.0 
-0.118649 0.0256031 0.0 
0.137171 -0.0560977 0.0 
0.0930347 -0.0282289 0.0 
0.411133 -0.0567481 0.0 
0.290785 0.0165568 0.0 
0.590756 -0.0966622 0.0 
-0.0370464 -0.0280762 0.0 
-0.0690289 -0.0188812 0.0 
0.00393039 -0.106626 0.0 
0.677046 -0.0747513 0.0 
0.300624 -0.0413639 0.0 
0.0579567 -0.0434166 0.0 
-0.000773485 0.0510966 0.0 
0.0315637 -0.0351153 0.0 
0.633499 -0.0118332 0.0 
0.0919278 -0.0761735 0.0 
0.117145 0.0298372 0.0 
0.352693 -0.0670225 0.0 
-0.00338093 -0.134969 0.0 
0.351763 -0.0510838 0.0 
0.351335 -0.000585892 0.0 
1.15963 0.0549583 0.0 
0.276856 -0.0864474 0.0 
0.111802 -0.132356 0.0 
1.02265 -0.102677 0.0 
0.141005 -0.105293 0.0 
0.421602 -0.0643667 0.0 
0.208056 -0.0865205 0.0 
0.364462 -0.0827588 0.0 
0.105256 0.00558288 0.0 
0.0119495 -0.0782136 0.0 
0.280559 -0.0653757 0.0 
-0.0938568 -0.0273089 0.0 
0.757522 -0.0191312 0.0 
0.904304 -0.0999487 0.0 
-0.0680087 0.0552931 0.0 
0.936266 -0.00538313 0.0 
0.469534 -0.0267402 0.0 
0.0589321 0.0592737 0.0 
-0.0813794 0.0445172 0.0 
-0.139707 0.0773114 0.0 
0.0121294 0.0631616 0.0 
-0.0763245 -0.00688458 0.0 
0.2604 -0.0767074 0.0 
0.38245 -0.0911106 0.0 
0.0344375 0.0151772 0.0 
0.089518 0.0171949 0.0 
-0.134011 0.0842966 0.0 
0.574923 -0.0108208 0.0 
0.0838989 -0.0993086 0.0 
0.965096 -0.00898038 0.0 
-0.00838407 -0.0949652 0.0 
0.348999 -0.0583464 0.0 
0.107945 -0.134946 0.0 
0.292111 0.00572747 0.0 
0.327172 -0.0446859 0.0 
0.705535 -0.0104236 0.0 
-0.0954364 -0.0390588 0.0 
0.0679313 -0.0644998 0.0 
0.0587712 0.0574115 0.0 
-0.0305646 0.0341968 0.0 
0.0607323 -0.135407 0.0 
0.293984 -0.0703146 0.0 
0.666205 -0.0438102 0.0 
0.292371 0.0149143 0.0 
0.517697 -0.107288 0.0 
-0.013479 0.0470965 0.0 
0.103009 -0.021766 0.0 
0.304549 -0.0628651 0.0 
0.105353 -0.0414879 0.0 
0.51742 -0.0503277 0.0 
0.14889 -0.0778082 0.0 
-0.00217357 -0.129416 0.0 
0.131686 -0.0314555 0.0 
-0.00392215 0.0612484 0.0 
0.00264419 0.0570896 0.0 
0.819983 -0.0582406 0.0 
0.754172 -0.0996799 0.0 
0.154783 -0.0660063 0.0 
0.0114863 0.0483804 0.0 
0.482443 -0.00346914 0.0 
0.69882 -0.0104435 0.0 
0.461762 -0.0529791 0.0 
-0.0110213 -0.0651449 0.0 
0.557783 -0.0140748 0.0 
0.654458 -0.113831 0.0 
0.0776609 0.0433883 0.0 
0.0378219 -0.0136813 0.0 
0.585988 -0.0387452 0.0 
0.569362 -0.10927 0.0 
0.425234 -0.100594 0.0 
-0.103021 0.00580233 0.0 
0.0669342 -0.0958847 0.0 
-0.136286 0.0674998 0.0 
0.524974 -0.0979143 0.0 
0.382392 -0.0612577 0.0 
0.909765 -0.0629223 0.0 
-0.13215 0.0621456 0.0 
0.0437563 -0.0211018 0.0 
-0.107582 0.0290948 0.0 
0.0880753 -0.0156166 0.0 
0.00993815 0.0185573 0.0 
1.0952 -0.0180817 0.0 
1.01395 0.00869178 0.0 
0.0184179 -0.0400375 0.0 
0.981454 -0.0702613 0.0 
0.169528 -0.0984304 0.0 
0.476502 -0.0128071 0.0 
-0.0690605 0.039022 0.0 
0.725741 -0.0451418 0.0 
0.365509 -0.0707897 0.0 
0.0366605 0.032819 0.0 
0.232352 -0.0842652 0.0 
-0.058297 0.038385 0.0 
0.172202 -0.105886 0.0 
0.00781877 0.0347206 0.0 
0.235845 -0.0420438 0.0 
0.357588 0.00990662 0.0 
-0.097886 0.0677885 0.0 
-0.124115 0.0474028 0.0 
0.328297 0.0130484 0.0 
-0.0729428 -0.0494944 0.0 
0.239611 -0.0748332 0.0 
0.409496 -0.112768 0.0 
0.631011 -0.0421788 0.0 
-0.0526789 -0.0721915 0.0 
0.021466 0.0543113 0.0 
-0.0877982 0.0537008 0.0 
0.325569 -0.0671754 0.0 
0.210946 -0.052697 0.0 
0.340861 -0.0830211 0.0 
-0.0973941 0.0364439 0.0 
0.059679 -0.107107 0.0 
0.0431029 0.0613737 0.0 
-0.0626271 0.00391052 0.0 
0.103114 -0.00330691 0.0 
-0.0572052 0.0199429 0.0 
-0.0760259 -0.0568593 0.0 
0.872652 -0.00314391 0.0 
0.401228 -0.11767 0.0 
0.215361 -0.0773477 0.0 
-0.117315 0.0183291 0.0 
0.0443684 -0.134782 0.0 
-0.00903943 -0.00213665 0.0 
-0.04693 0.0297067 0.0 
-0.100092 -0.0186328 0.0 
-0.0840847 0.00711642 0.0 
0.536898 -0.0120528 0.0 
-0.109065 0.018462 0.0 
0.0962979 0.0243088 0.0 
0.0423575 0.0397971 0.0 
0.401362 -0.0542234 0.0 
-0.0144009 -0.0874094 0.0 
0.0946329 0.0513952 0.0 
0.739882 -0.110195 0.0 
-0.12932 0.0512194 0.0 
0.311195 -0.0778798 0.0 
0.456579 -0.00753027 0.0 
0.317972 -0.0695779 0.0 
0.060481 -0.086476 0.0 
0.371194 -0.0988662 0.0 
-0.00580765 0.0229381 0.0 
0.0874548 -0.00358865 0.0 
0.300805 -0.086056 0.0 
1.07676 -0.0622798 0.0 
0.0203224 -0.0889893 0.0 
0.983895 -0.000941743 0.0 
0.145583 -0.0390226 0.0 
-0.140672 0.0773286 0.0 
-0.120348 0.0356848 0.0 
0.489364 -0.00275998 0.0 
0.522412 -0.055591 0.0 
0.151638 -0.0473572 0.0 
0.51163 -0.0924077 0.0 
-0.0800282 -0.0433231 0.0 
0.816363 -0.049326 0.0 
-0.122491 0.060798 0.0 
-0.135297 0.0722854 0.0 
0.662161 -0.0819321 0.0 
-0.0701529 0.0183313 0.0 
0.748728 -0.068734 0.0 
0.852081 -0.0995724 0.0 
0.320071 0.00731113 0.0 
0.298041 -0.0327539 0.0 
-0.0212769 -0.0977286 0.0 
0.217694 -0.127519 0.0 
0.0853139 0.00829022 0.0 
0.248895 -0.0912981 0.0 
0.632543 -0.0951515 0.0 
0.0779894 0.0544801 0.0 
0.862114 -0.0941436 0.0 
-0.0657767 -0.0465997 0.0 
0.0762862 -0.0295095 0.0 
-0.00242004 0.00507068 0.0 
-0.0982067 -0.0114264 0.0 
-0.0798176 -0.0210803 0.0 
-0.0537096 0.0083717 0.0 
0.245851 0.0077235 0.0 
1.03059 -0.00822828 0.0 
0.819977 -0.00956742 0.0 
0.00339336 -0.0971883 0.0 
-0.0984116 0.0130407 0.0 
0.746129 -0.0900821 0.0 
0.217661 0.0245696 0.0 
-0.111891 0.00329253 0.0 
-0.0743808 0.0498302 0.0 
0.274071 -0.0619692 0.0 
-0.117664 0.0382294 0.0 
0.195746 0.028077 0.0 
0.671053 -0.111332 0.0 
-0.112543 0.0414198 0.0 
0.0332552 -0.00678684 0.0 
0.42709 0.000178448 0.0 
0.262588 -0.12592 0.0 
-0.0431232 -0.0367436 0.0 
-0.0750086 -0.037693 0.0 
1.08766 -0.049925 0.0 
0.3139 -0.0543327 0.0 
0.266847 -0.0958525 0.0 
0.197397 0.0339539 0.0 
-0.0332046 -0.0185039 0.0 
0.464412 -0.0950883 0.0 
0.411485 -0.0796259 0.0 
-0.039985 -0.0809881 0.0 
-0.123682 0.0384258 0.0 
1.03108 -0.040551 0.0 
0.897727 -0.0060424 0.0 
-0.00500024 0.0489941 0.0 
0.405638 -0.0154758 0.0 
0.247838 -0.107151 0.0 
0.399877 -0.01492 0.0 
0.298055 -0.0990405 0.0 
0.00874932 -0.0295487 0.0 
-0.134326 0.0655493 0.0 
0.133751 0.0432938 0.0 
-0.081975 0.0177488 0.0 
0.381734 -0.0675951 0.0 
0.0403791 -0.0872705 0.0 
0.0966715 -0.0543086 0.0 
0.0592925 0.0304792 0.0 
-0.0590206 -0.0536606 0.0 
-0.0641536 -0.0599946 0.0 
0.00231135 -0.0187582 0.0 
-0.10928 0.0100229 0.0 
0.581127 -0.0130596 0.0 
0.745175 -0.0988107 0.0 
0.305773 -0.0155963 0.0 
0.0930149 0.04793 0.0 
1.05816 -0.0294951 0.0 
0.438643 -0.0580352 0.0 
-0.107888 0.049444 0.0 
-0.0865117 -0.00507701 0.0 
0.30272 -0.0949432 0.0 
0.416864 0.00223381 0.0 
-0.134879 0.065834 0.0 
0.0142718 -0.00201848 0.0 
-0.0956851 -0.00394594 0.0 
0.871532 -0.0600581 0.0 
-0.0260357 0.0501931 0.0 
-0.0262945 0.0138328 0.0 
-0.0520608 -0.0606772 0.0 
0.625726 -0.0878887 0.0 
-0.0960832 -0.0310431 0.0 
-0.085271 0.0294237 0.0 
0.515511 -0.0138895 0.0 
-0.0201173 -0.0491336 0.0 
0.029021 0.0552734 0.0 
-0.120945 0.0619027 0.0 
0.308148 0.00352831 0.0 
0.140107 0.0388031 0.0 
0.454627 -0.0957714 0.0 
0.292391 0.0119766 0.0 
-0.0406987 -0.000107064 0.0 
0.385383 -0.00194413 0.0 
0.0276748 0.0590058 0.0 
0.334409 -0.0638475 0.0 
0.464769 -0.0086287 0.0 
-0.0253872 -0.0772778 0.0 
0.914926 0.00695757 0.0 
0.0347851 0.0476029 0.0 
-0.0732632 0.00533329 0.0 
-0.124333 0.0370776 0.0 
0.289632 -0.0231239 0.0 
-0.124104 0.0367744 0.0 
0.640356 -0.0109481 0.0 
-0.0730877 0.0318315 0.0 
-0.0334919 0.00763126 0.0 
0.343331 -0.0156589 0.0 
0.698568 -0.0456385 0.0 
0.0217505 0.0348615 0.0 
-0.0135529 0.00881185 0.0 
0.0616534 0.0446273 0.0 
1.0221 -0.0122949 0.0 
0.11642 0.0486677 0.0 
0.989315 -0.0492175 0.0 
0.453172 -0.0102661 0.0 
0.437372 -0.087122 0.0 
0.103159 -0.0131981 0.0 
0.116882 -0.0508845 0.0 
0.286708 -0.0439009 0.0 
0.222528 -0.0926529 0.0 
0.374072 -0.0571374 0.0 
-0.0880838 0.058901 0.0 
0.876903 -0.00419241 0.0 
1.06835 -0.0218812 0.0 
0.650302 -0.0110074 0.0 
-0.0176569 0.0537704 0.0 
0.986817 -0.00531374 0.0 
0.846095 -0.003998 0.0 
-0.0139482 0.0651835 0.0 
0.266308 -0.0983626 0.0 
0.0675074 -0.0191734 0.0 
0.523681 -0.0210403 0.0 
0.546882 -0.0103744 0.0 
-0.0932477 0.0221772 0.0 
0.258356 -0.081844 0.0 
0.251455 0.0174777 0.0 
-0.0340551 -0.141408 0.0 
0.282583 -0.105387 0.0 
0.65335 -0.0828412 0.0 
-0.105776 0.0580104 0.0 
0.231793 -0.0561665 0.0 
0.595719 -0.0714889 0.0 
0.0316048 -0.0243215 0.0 
0.06993 -0.00820513 0.0 
0.00193006 -0.0873404 0.0 
-0.0308595 0.0243865 0.0 
0.384224 7.22923e-06 0.0 
0.0317143 0.00354447 0.0 
-0.129752 0.0603274 0.0 
0.0499634 -0.0069066 0.0 
0.370993 -0.0996883 0.0 
-0.101503 0.0633445 0.0 
0.883973 -0.0548513 0.0 
-0.117628 0.0652233 0.0 
0.893173 -0.0637952 0.0 
0.0587858 0.0224124 0.0 
-0.100408 -0.0260215 0.0 
0.243479 -0.0640625 0.0 
0.214329 -0.10832 0.0 
-0.124838 0.0611751 0.0 
-0.0164518 -0.0740062 0.0 
0.369186 -0.0158343 0.0 
1.16345 0.0393629 0.0 
0.795225 -0.007147 0.0 
0.493838 -0.041414 0.0 
-0.0537279 0.0503469 0.0 
-0.0422148 0.0197048 0.0 
0.264319 -0.0149878 0.0 
0.024554 -0.114505 0.0 
0.408149 -0.0102971 0.0 
0.358945 -0.0560574 0.0 
0.610908 -0.0133278 0.0 
0.535386 -0.104352 0.0 
-0.114118 0.00715988 0.0 
0.475823 -0.0109961 0.0 
0.282958 -0.0749988 0.0 
0.40628 0.00291935 0.0 
0.0288763 0.0648119 0.0 
0.570428 -0.012317 0.0 
-0.114777 0.0246465 0.0 
-0.0635256 -0.00864915 0.0 
0.0050035 0.0532565 0.0 
0.58334 -0.00887545 0.0 
-0.0124567 0.0616151 0.0 
0.222824 -0.124569 0.0 
0.60191 -0.006795 0.0 
0.545876 -0.00785873 0.0 
-0.144064 0.0886455 0.0 
-0.104589 0.0379605 0.0 
0.332131 0.00399848 0.0 
0.13011 -0.115996 0.0 
0.46023 -0.000800417 0.0 
-0.0914089 -0.0493527 0.0 
0.310883 0.00997556 0.0 
0.222922 -0.0473715 0.0 
0.198106 -0.130931 0.0 
-0.108613 -0.00888791 0.0 
0.158385 -0.116418 0.0 
-0.12513 0.0557588 0.0 
0.57999 -0.105765 0.0 
0.204613 -0.0117617 0.0 
0.809051 -0.00893398 0.0 
-0.109119 0.0017346 0.0 
0.741655 -0.0103268 0.0 
0.62214 -0.00765737 0.0 
-0.116869 0.0154979 0.0 
0.69653 -0.0107403 0.0 
0.376497 -0.0111318 0.0 
1.1019 -0.0682369 0.0 
0.686962 -0.0315093 0.0 
0.490084 -0.0780867 0.0 
0.474687 -0.0661005 0.0 
0.141871 0.0437286 0.0 
0.590912 -0.0518519 0.0 
0.395946 -0.0942582 0.0 
0.966261 -0.00321906 0.0 
0.00500464 0.0272373 0.0 
0.216601 -0.0611231 0.0 
0.705776 -0.0183801 0.0 
0.423654 -0.0157087 0.0 
0.101241 -0.11966 0.0 
0.817176 -0.00842657 0.0 
0.404838 -0.00576092 0.0 
0.377069 -0.00314569 0.0 
0.801899 -0.0411038 0.0 
0.119389 -0.012974 0.0 
0.327538 -0.105185 0.0 
0.148598 -0.00561274 0.0 
0.3115 -0.0155031 0.0 
0.385988 -0.0134519 0.0 
0.324999 0.00560078 0.0 
1.13861 0.0325325 0.0 
0.598915 -0.0197082 0.0 
0.526416 -0.0033976 0.0 
0.401541 -0.084108 0.0 
0.432732 0.00280443 0.0 
0.16975 0.0378903 0.0 
0.52995 -0.00553642 0.0 
-0.119438 0.045456 0.0 
0.544663 -0.0295168 0.0 
-0.0139046 0.0567853 0.0 
0.387589 -0.0531716 0.0 
-0.120286 0.0249513 0.0 
0.162065 -0.108648 0.0 
0.497197 -0.00868327 0.0 
0.479047 -0.06907 0.0 
0.926286 -0.00389228 0.0 
0.304548 -0.059959 0.0 
0.79274 -0.00933715 0.0 
0.470995 -0.00972071 0.0 
0.881186 -0.0070326 0.0 
0.49875 -0.00695102 0.0 
0.909752 -0.00414706 0.0 
-0.0159718 0.040834 0.0 
0.948184 -0.00605039 0.0 
0.432113 -0.014641 0.0 
0.0666336 0.00698531 0.0 
0.702635 -0.0914494 0.0 
0.595898 -0.0134203 0.0 
0.21269 -0.100328 0.0 
1.07783 0.00250744 0.0 
0.316992 0.0122113 0.0 
0.198485 -0.0686272 0.0 
0.854535 -0.0579905 0.0 
0.189229 -0.126788 0.0 
0.186871 -0.0895238 0.0 
0.23582 -0.100017 0.0 
0.457356 -0.0151814 0.0 
0.36293 -0.104778 0.0 
1.09477 0.0261768 0.0 
1.00662 -0.00369301 0.0 
-0.0899091 -0.0435213 0.0 
0.418528 -0.0973291 0.0 
0.19095 -0.0183001 0.0 
0.198526 -0.0954473 0.0 
0.739357 -0.0405287 0.0 
0.192245 -0.119591 0.0 
0.737222 -0.00979185 0.0 
0.160452 0.0402938 0.0 
0.221504 -0.0690352 0.0 
-0.0287646 0.0419564 0.0 
0.21251 -0.0359475 0.0 
0.0266768 -0.126934 0.0 
1.16783 0.0472575 0.0 
-0.0307966 -0.0096837 0.0 
0.943028 -0.00761119 0.0 
0.421142 -0.0770502 0.0 
0.291533 -0.0154112 0.0 
0.178487 0.0333664 0.0 
0.273928 -0.0323025 0.0 
1.05091 -0.00201909 0.0 
1.06723 -0.0898555 0.0 
0.767385 -0.0100316 0.0 
0.684023 -0.0541176 0.0 
0.700872 -0.11278 0.0 
0.370742 -0.000171013 0.0 
0.00324823 0.0118652 0.0 
0.44061 -0.0689517 0.0 
-0.0174865 -0.00581027 0.0 
0.252933 -0.0532677 0.0 
0.176005 -0.130239 0.0 
0.249531 -0.0289866 0.0 
0.509977 -0.00850188 0.0 
0.346675 -0.0120485 0.0 
0.157457 -0.128495 0.0 
0.00821706 0.0427441 0.0 
0.217166 0.0194334 0.0 
0.792331 -0.0108778 0.0 
0.465311 -0.0834093 0.0 
0.1145 0.0231383 0.0 
-0.0760249 -0.0751465 0.0 
0.661419 -0.00994149 0.0 
0.90433 -0.00338217 0.0 
0.191495 -0.0804688 0.0 
0.376111 0.00848778 0.0 
0.039972 0.056619 0.0 
0.467069 -0.00555621 0.0 
0.853177 -0.00758703 0.0 
0.259024 -0.0407323 0.0 
0.577756 -0.00636204 0.0 
-0.00612504 0.0571455 0.0 
-0.0411666 -0.0682261 0.0 
0.363342 0.00497482 0.0 
0.838198 -0.0727314 0.0 
0.986808 -0.00904933 0.0 
0.866529 -0.00565162 0.0 
-0.0156649 -0.0571183 0.0 
0.753008 -0.0100871 0.0 
0.217136 0.0229955 0.0 
-0.09406 -0.0477461 0.0 
0.571234 -0.00798773 0.0 
0.441033 -0.106866 0.0 
0.45166 -0.0892962 0.0 
0.653363 -0.0125557 0.0 
0.857793 -0.00757187 0.0 
0.460728 -0.0708151 0.0 
0.273416 -0.0223641 0.0 
0.54916 -0.0210937 0.0 
0.68756 -0.01142 0.0 
0.283005 0.0202886 0.0 
0.97029 -0.00558027 0.0 
0.404094 0.00426867 0.0 
0.435246 -0.00396095 0.0 
0.723525 -0.00971843 0.0 
0.376026 0.00229862 0.0 
0.339968 -0.0749487 0.0 
0.706871 -0.0843802 0.0 
0.665844 -0.0932617 0.0 
0.643115 -0.0139541 0.0 
0.182501 -0.110849 0.0 
-0.0988728 -0.0355251 0.0 
0.190028 -0.10385 0.0 
0.107615 -0.136562 0.0 
0.943224 -0.00695215 0.0 
0.454886 -0.117363 0.0 
0.986487 -0.0200963 0.0 
0.389305 0.00664881 0.0 
0.312873 -0.104508 0.0 
0.269714 -0.11937 0.0 
0.139802 -0.0887592 0.0 
0.880242 -0.00608667 0.0 
0.354032 -0.091006 0.0 
0.265307 -0.0133959 0.0 
0.776061 -0.0572897 0.0 
0.447812 -0.000903765 0.0 
0.390512 -0.104956 0.0 
0.319742 -0.0831062 0.0 
0.150739 -0.105856 0.0 
0.0533831 0.0203364 0.0 
0.829358 -0.0665853 0.0 
0.836582 -0.00245924 0.0 
0.793498 -0.0534121 0.0 
0.32364 -0.013942 0.0 
-0.0445653 0.0111131 0.0 
0.834756 -0.10573 0.0 
0.162806 0.0400382 0.0 
0.112 -0.137501 0.0 
0.640576 -0.0113728 0.0 
0.280694 -0.123493 0.0 
0.132784 -0.0693099 0.0 
-0.0162998 -0.0406705 0.0 
0.483268 -0.00223784 0.0 
0.271784 0.00648668 0.0 
0.506714 -0.0117606 0.0 
0.0746902 0.0278695 0.0 
-0.139658 0.0814983 0.0 
0.727736 -0.102207 0.0 
-0.0453375 -0.116244 0.0 
0.991657 -0.00424643 0.0 
0.261199 -0.00412062 0.0 
0.863459 -0.00627311 0.0 
0.0813993 0.0362382 0.0 
0.759511 -0.00804363 0.0 
0.813413 -0.00929505 0.0 
1.17966 0.0570563 0.0 
0.192583 -0.106748 0.0 
0.446343 0.00195377 0.0 
0.215743 0.0151108 0.0 
-0.0894153 -0.0231917 0.0 
0.39764 -0.0994242 0.0 
0.337672 -0.109014 0.0 
0.609923 -0.103881 0.0 
0.0371583 -0.106677 0.0 
0.443224 -0.0138123 0.0 
0.338591 -0.0612476 0.0 
0.724515 -0.0087612 0.0 
0.0962942 0.0406082 0.0 
0.84282 -0.111891 0.0 
0.214016 0.0307967 0.0 
0.854948 -0.104863 0.0 
0.289889 -0.0911244 0.0 
0.547852 -0.0598859 0.0 
1.06572 -0.0628474 0.0 
0.900566 -0.110075 0.0 
0.686298 -0.00594505 0.0 
0.336978 -0.0993842 0.0 
0.378025 -0.106433 0.0 
0.135683 0.0443199 0.0 
0.764354 -0.0460661 0.0 
0.364961 -0.0147471 0.0 
0.625565 -0.0123345 0.0 
0.539544 -0.0669033 0.0 
0.827058 -0.00710395 0.0 
1.08273 -0.0831657 0.0 
0.435167 -0.0821994 0.0 
1.13107 0.0543039 0.0 
0.172917 -0.0735623 0.0 
1.11308 0.0116951 0.0 
-0.040204 0.0499328 0.0 
0.476915 -0.108235 0.0 
1.05045 -0.0491227 0.0 
0.237139 0.0274171 0.0 
0.408282 -0.094498 0.0 
0.892993 -0.0584445 0.0 
0.775306 -0.0122904 0.0 
-0.106125 -0.0167821 0.0 
0.574938 -0.0111108 0.0 
0.265224 -0.12191 0.0 
0.418781 -0.00874718 0.0 
0.317098 -0.0528495 0.0 
0.0012096 -0.144704 0.0 
0.11206 -0.0735499 0.0 
0.0497948 0.0313286 0.0 
0.325596 -0.0891969 0.0 
0.229805 -0.0212953 0.0 
-0.0397933 -0.0594155 0.0 
0.967406 0.0231524 0.0 
0.431514 -0.0727574 0.0 
0.354193 0.00734466 0.0 
0.315108 -0.0789809 0.0 
0.97711 -0.00447283 0.0 
0.18458 0.0344536 0.0 
0.693154 -0.0110873 0.0 
0.226278 -0.0115944 0.0 
0.590415 -0.0618485 0.0 
0.0165395 0.00688663 0.0 
0.159041 -0.0562607 0.0 
0.187544 -0.115998 0.0 
0.917005 0.0115002 0.0 
1.01079 -0.00803365 0.0 
0.332861 0.00850175 0.0 
0.190161 0.0252307 0.0 
1.13382 0.0137221 0.0 
0.0572231 -0.11646 0.0 
-0.06061 -0.0723012 0.0 
0.509121 -0.0125456 0.0 
0.0151868 -0.100007 0.0 
0.0724252 0.0542682 0.0 
0.28454 -0.0787539 0.0 
0.63755 -0.0625286 0.0 
-0.0422938 -0.130243 0.0 
0.476487 -0.000865091 0.0 
0.795829 -0.0739991 0.0 
1.18908 0.064208 0.0 
0.127977 -0.0988312 0.0 
0.35539 -0.0181801 0.0 
0.264834 0.0159108 0.0 
0.0210451 -0.0302866 0.0 
0.326591 -0.0928163 0.0 
0.470144 -0.0407053 0.0 
-0.0707781 -0.0656644 0.0 
0.200315 0.0103135 0.0 
0.196457 0.0172032 0.0 
0.971532 0.0020019 0.0 
0.195317 -0.0564072 0.0 
0.401172 0.00514909 0.0 
0.510599 -0.0306547 0.0 
0.3235 -0.00611844 0.0 
0.157512 0.0383502 0.0 
0.610554 -0.048593 0.0 
0.373958 -0.0178028 0.0 
0.279004 -0.00315287 0.0 
-0.00686698 0.0134807 0.0 
-0.0426498 -0.0878303 0.0 
0.322724 -0.0215566 0.0 
0.103125 -0.0873397 0.0 
0.521438 -0.0785086 0.0 
0.526873 -0.0824711 0.0 
0.530533 -0.0886917 0.0 
0.727852 -0.0770111 0.0 
0.199715 0.0295345 0.0 
-0.0273605 -0.0622853 0.0 
0.515668 -0.0491945 0.0 
0.873949 0.0146714 0.0 
0.624326 -0.112271 0.0 
0.994242 -0.104669 0.0 
0.182368 0.000507685 0.0 
0.849503 -0.0086466 0.0 
-0.101097 -0.03186 0.0 
0.427568 -0.0144268 0.0 
0.247878 0.0136899 0.0 
0.431376 -0.105781 0.0 
0.21729 -0.121098 0.0 
0.287564 0.0123891 0.0 
0.805251 -0.044786 0.0 
0.386701 -0.0155698 0.0 
0.708534 -0.0111825 0.0 
0.82763 -0.00754493 0.0 
0.51189 -0.0683739 0.0 
0.00843683 -0.011368 0.0 
0.558159 -0.00764218 0.0 
0.00681288 -0.145412 0.0 
0.75543 -0.0845167 0.0 
0.795123 -0.00471138 0.0 
0.399249 -0.0282407 0.0 
0.414169 -0.104671 0.0 
0.346278 -0.0234264 0.0 
0.0659066 -0.124966 0.0 
0.321367 0.0146924 0.0 
0.367431 -0.118732 0.0 
1.0491 0.0319365 0.0 
0.228366 0.0266704 0.0 
0.229009 0.00372823 0.0 
0.461313 -0.0316037 0.0 
0.965035 -0.00139774 0.0 
0.942885 -0.0440073 0.0 
0.14958 -0.0315406 0.0 
0.178171 -0.0246432 0.0 
0.404712 -0.00416588 0.0 
0.999699 0.00339101 0.0 
0.594858 -0.0800347 0.0 
0.23125 -0.0327287 0.0 
0.235727 -0.00655192 0.0 
0.730572 -0.107685 0.0 
-0.129571 0.062087 0.0 
0.885933 -0.0815954 0.0 
0.951517 0.0175302 0.0 
0.0556681 -0.019621 0.0 
0.235925 -0.102795 0.0 
0.00334412 -0.0391033 0.0 
0.294231 0.00482499 0.0 
0.123115 -0.114136 0.0 
0.881083 -0.10941 0.0 
0.316183 0.00830434 0.0 
0.0779369 -0.00483448 0.0 
0.811711 -0.105988 0.0 
0.253303 -0.0186653 0.0 
0.55413 -0.0781672 0.0 
0.419426 -0.01876 0.0 
-0.0423621 -0.0114646 0.0 
0.377198 -0.0313087 0.0 
0.0583554 0.0549299 0.0 
0.205541 0.0302935 0.0 
0.776082 -0.00941762 0.0 
0.249811 -0.00530226 0.0 
0.417471 -0.118101 0.0 