<VTKFile type="UnstructuredGrid" version="0.1" byte_order="LittleEndian">
  <UnstructuredGrid>
    <Piece NumberOfPoints="13852" NumberOfCells="27155">
      <Points>
        <DataArray type = "Float64" NumberOfComponents="3" format="ascii">
1.04711 0.98224 0.0 
1.0481 0.978018 0.0 
1.04832 0.978555 0.0 
1.0385 0.952284 0.0 
1.08896 0.911208 0.0 
1.01733 0.967159 0.0 
1.002 0.819853 0.0 
1.01508 0.969117 0.0 
1.02568 0.97463 0.0 
1.06991 0.965581 0.0 
1.04785 0.98212 0.0 
1.06833 0.966215 0.0 
1.02097 0.827497 0.0 
1.07586 0.954084 0.0 
1.02348 0.947673 0.0 
1.03463 0.955293 0.0 
1.03249 0.932875 0.0 
1.03659 0.942173 0.0 
1.01134 0.848715 0.0 
1.013 0.970516 0.0 
1.04267 0.967096 0.0 
1.00734 0.970272 0.0 
1.05347 0.955484 0.0 
0.998136 0.836533 0.0 
1.02035 0.921181 0.0 
1.02847 0.975742 0.0 
1.05044 0.974621 0.0 
1.01162 0.974993 0.0 
1.01704 0.970501 0.0 
1.03739 0.936672 0.0 
1.04082 0.837365 0.0 
1.01088 0.971897 0.0 
1.04422 0.852519 0.0 
1.03007 0.976957 0.0 
1.02775 0.84866 0.0 
1.04328 0.867745 0.0 
1.05329 0.98135 0.0 
1.06121 0.969409 0.0 
1.0296 0.929109 0.0 
1.0545 0.972557 0.0 
1.05544 0.97765 0.0 
1.01404 0.974814 0.0 
1.07164 0.962743 0.0 
1.05622 0.976016 0.0 
1.0132 0.968047 0.0 
1.05577 0.976851 0.0 
1.05298 0.980603 0.0 
1.05826 0.955238 0.0 
1.02085 0.96303 0.0 
1.04965 0.975583 0.0 
1.02125 0.969569 0.0 
1.05517 0.978439 0.0 
1.08597 0.919253 0.0 
1.00622 0.861753 0.0 
1.05493 0.980692 0.0 
1.07383 0.858995 0.0 
1.05407 0.979526 0.0 
1.05497 0.979228 0.0 
1.00921 0.970344 0.0 
1.01292 0.972924 0.0 
1.03756 0.967908 0.0 
1.07236 0.959141 0.0 
1.03235 0.971416 0.0 
1.04967 0.950129 0.0 
1.01843 0.975285 0.0 
1.05705 0.975512 0.0 
1.04878 0.954295 0.0 
1.03058 0.956849 0.0 
1.03286 0.861306 0.0 
1.04646 0.93921 0.0 
1.06602 0.948548 0.0 
1.08312 0.9055 0.0 
1.02839 0.969525 0.0 
1.02863 0.973647 0.0 
1.02574 0.969213 0.0 
1.0414 0.964388 0.0 
1.01213 0.959566 0.0 
1.03311 0.924852 0.0 
1.01017 0.981768 0.0 
1.06038 0.969961 0.0 
1.04688 0.96703 0.0 
1.05212 0.975703 0.0 
1.0337 0.973517 0.0 
1.04243 0.969976 0.0 
1.05428 0.98123 0.0 
1.05742 0.861335 0.0 
1.04291 0.958733 0.0 
1.04112 0.941308 0.0 
1.05365 0.980725 0.0 
1.04886 0.978958 0.0 
1.05271 0.981003 0.0 
1.08122 0.872859 0.0 
1.0473 0.964006 0.0 
1.01625 0.974905 0.0 
1.01678 0.98155 0.0 
1.03542 0.96877 0.0 
1.08141 0.89621 0.0 
1.03849 0.892747 0.0 
1.04137 0.961197 0.0 
1.02162 0.932199 0.0 
1.0411 0.980335 0.0 
1.05952 0.970412 0.0 
1.03268 0.973624 0.0 
1.03542 0.974173 0.0 
1.05246 0.981455 0.0 
1.06607 0.96473 0.0 
1.0748 0.949224 0.0 
1.03301 0.967194 0.0 
1.02691 0.973286 0.0 
1.03035 0.971359 0.0 
1.01691 0.949427 0.0 
1.03702 0.969795 0.0 
1.05487 0.979987 0.0 
1.01885 0.989597 0.0 
1.07044 0.961302 0.0 
1.05051 0.976747 0.0 
1.02365 0.952598 0.0 
1.05926 0.970991 0.0 
1.05347 0.980072 0.0 
1.05595 0.958272 0.0 
1.05421 0.980372 0.0 
1.02373 0.957025 0.0 
1.06024 0.969414 0.0 
1.03815 0.965306 0.0 
1.05475 0.977058 0.0 
1.0541 0.528084 0.0 
1.04963 0.889271 0.0 
1.0543 0.97868 0.0 
1.04936 0.981189 0.0 
1.07643 0.944428 0.0 
1.02213 0.975137 0.0 
1.03599 0.959662 0.0 
1.02325 0.914761 0.0 
1.07099 0.964762 0.0 
1.01919 0.940563 0.0 
1.00872 0.872817 0.0 
1.07394 0.940434 0.0 
1.05167 0.980167 0.0 
1.05046 0.975213 0.0 
1.05502 0.981143 0.0 
1.04879 0.980852 0.0 
1.06277 0.968002 0.0 
1.03892 0.969711 0.0 
1.06521 0.967119 0.0 
1.03128 0.969402 0.0 
1.05001 0.981221 0.0 
1.05122 0.976094 0.0 
1.08025 0.91247 0.0 
1.02478 0.98057 0.0 
1.05401 0.97431 0.0 
1.0512 0.979024 0.0 
1.05429 0.973211 0.0 
1.01911 0.946286 0.0 
1.05241 0.973757 0.0 
1.05116 0.946304 0.0 
1.05334 0.97489 0.0 
1.06075 0.96875 0.0 
1.04907 0.980379 0.0 
1.04019 0.967669 0.0 
1.02367 0.964609 0.0 
1.05452 0.968627 0.0 
1.05357 0.973731 0.0 
1.05049 0.979475 0.0 
1.05058 0.980913 0.0 
1.0151 0.937807 0.0 
1.05782 0.97292 0.0 
1.04926 0.976081 0.0 
1.05325 0.973062 0.0 
1.05314 0.975987 0.0 
1.04876 0.97753 0.0 
1.07773 0.939012 0.0 
1.0478 0.980811 0.0 
1.01962 0.862946 0.0 
1.03875 0.946741 0.0 
1.05163 0.977731 0.0 
1.0514 0.974639 0.0 
1.05035 0.978892 0.0 
1.05143 0.976756 0.0 
1.04827 0.980475 0.0 
1.02186 0.987729 0.0 
1.04865 0.97492 0.0 
1.05452 0.977882 0.0 
1.05295 0.977634 0.0 
1.06236 0.965462 0.0 
1.04761 0.978648 0.0 
1.05279 0.975404 0.0 
1.05134 0.975372 0.0 
1.03147 0.952199 0.0 
1.05215 0.976426 0.0 
1.03949 0.976051 0.0 
1.04973 0.980474 0.0 
1.05035 0.977432 0.0 
1.0146 0.986531 0.0 
1.05108 0.979769 0.0 
1.05602 0.974621 0.0 
1.05266 0.974351 0.0 
1.04912 0.966209 0.0 
1.04962 0.979568 0.0 
1.04961 0.976536 0.0 
1.05021 0.975988 0.0 
1.05206 0.974936 0.0 
1.05032 0.969571 0.0 
1.05186 0.974147 0.0 
1.06203 0.968728 0.0 
1.05991 0.965841 0.0 
1.0516 0.978336 0.0 
1.05483 0.973655 0.0 
1.05932 0.969903 0.0 
1.05117 0.977289 0.0 
1.03365 0.970018 0.0 
1.04797 0.979765 0.0 
1.05088 0.978511 0.0 
1.05229 0.97789 0.0 
1.05208 0.978709 0.0 
1.03772 0.979638 0.0 
1.05079 0.975666 0.0 
1.01208 0.985064 0.0 
1.04761 0.98154 0.0 
1.00399 0.882179 0.0 
1.05022 0.980121 0.0 
1.04889 0.978137 0.0 
1.01733 0.98259 0.0 
1.06088 0.967925 0.0 
1.05365 0.978133 0.0 
1.06702 0.873552 0.0 
1.04612 0.900706 0.0 
1.05249 0.959949 0.0 
1.05576 0.972179 0.0 
1.05635 0.975269 0.0 
1.05801 0.972145 0.0 
1.05118 0.981626 0.0 
1.05671 0.973351 0.0 
1.01424 0.981431 0.0 
1.05346 0.978874 0.0 
1.06442 0.921664 0.0 
1.04597 0.971239 0.0 
1.07765 0.919989 0.0 
1.07535 0.925801 0.0 
1.0566 0.973941 0.0 
1.01171 0.928677 0.0 
1.05325 0.979507 0.0 
1.02842 0.971984 0.0 
1.02028 0.973684 0.0 
1.06653 0.966266 0.0 
1.08241 0.925992 0.0 
1.05709 0.974926 0.0 
1.05668 0.972633 0.0 
1.01502 0.983492 0.0 
1.01364 0.984015 0.0 
1.01223 0.96581 0.0 
1.08741 0.884872 0.0 
1.05929 0.969157 0.0 
1.05258 0.979935 0.0 
1.04906 0.981933 0.0 
1.05335 0.876571 0.0 
1.05056 0.981711 0.0 
1.07887 0.932533 0.0 
1.03318 0.982517 0.0 
1.01927 0.97137 0.0 
1.06171 0.968181 0.0 
1.02385 0.937849 0.0 
1.0148 0.985041 0.0 
1.02037 0.983625 0.0 
1.02961 0.975505 0.0 
1.01478 0.95308 0.0 
1.07112 0.94539 0.0 
1.04972 0.957484 0.0 
1.01589 0.983668 0.0 
1.06355 0.967224 0.0 
1.0171 0.976939 0.0 
1.04459 0.965374 0.0 
1.03852 0.929477 0.0 
1.03332 0.962048 0.0 
1.07075 0.952792 0.0 
1.0408 0.969499 0.0 
1.01944 0.873327 0.0 
1.05703 0.971799 0.0 
1.04401 0.98212 0.0 
1.03135 0.964426 0.0 
1.05838 0.970594 0.0 
1.0496 0.978583 0.0 
1.00798 0.960738 0.0 
1.01681 0.986274 0.0 
1.01126 0.984621 0.0 
1.05573 0.973841 0.0 
1.04039 0.971273 0.0 
1.0417 0.955047 0.0 
1.04485 0.967951 0.0 
1.04317 0.968624 0.0 
1.07459 0.905225 0.0 
1.01698 0.987805 0.0 
1.0582 0.971378 0.0 
1.07457 0.88506 0.0 
1.05587 0.97327 0.0 
1.0162 0.907797 0.0 
1.02666 0.96275 0.0 
1.01135 0.987734 0.0 
1.03514 0.972857 0.0 
1.05508 0.976266 0.0 
1.05212 0.980602 0.0 
1.00845 0.968658 0.0 
1.03285 0.979113 0.0 
1.01714 0.984187 0.0 
1.02989 0.972782 0.0 
1.0617 0.886491 0.0 
1.01944 0.935741 0.0 
1.05268 0.979147 0.0 
1.02229 0.98172 0.0 
1.02172 0.980575 0.0 
1.02132 0.984371 0.0 
1.04135 0.970608 0.0 
1.05545 0.975475 0.0 
1.05139 0.98087 0.0 
1.03103 0.874035 0.0 
1.0573 0.974307 0.0 
1.01383 0.948921 0.0 
1.04703 0.947739 0.0 
1.04114 0.880997 0.0 
1.02389 0.980628 0.0 
1.01523 0.981378 0.0 
1.03854 0.983961 0.0 
1.06285 0.907157 0.0 
1.07023 0.964149 0.0 
1.01285 0.989453 0.0 
1.02811 0.943357 0.0 
1.06211 0.967503 0.0 
1.03533 0.980009 0.0 
1.01413 0.987068 0.0 
1.04536 0.952162 0.0 
1.01534 0.986238 0.0 
1.02036 0.976003 0.0 
1.01847 0.983838 0.0 
1.0538 0.97733 0.0 
1.0576 0.97365 0.0 
1.01111 0.986219 0.0 
1.06898 0.939725 0.0 
1.02481 0.978095 0.0 
1.03973 0.958882 0.0 
1.01904 0.985554 0.0 
1.0523 0.95202 0.0 
1.05501 0.974306 0.0 
1.01222 0.987267 0.0 
1.03899 0.981323 0.0 
1.01573 0.987261 0.0 
1.07122 0.913644 0.0 
1.04132 0.977633 0.0 
1.01011 0.98907 0.0 
1.01848 0.986099 0.0 
1.02532 0.926823 0.0 
1.05913 0.971679 0.0 
1.03893 0.971196 0.0 
1.07253 0.935371 0.0 
1.01627 0.987439 0.0 
1.02261 0.978016 0.0 
1.0213 0.980024 0.0 
1.02071 0.984805 0.0 
1.06466 0.966383 0.0 
1.02796 0.949597 0.0 
1.01514 0.976964 0.0 
1.01801 0.982883 0.0 
1.05793 0.924781 0.0 
1.03806 0.956271 0.0 
1.00963 0.954915 0.0 
1.01867 0.981678 0.0 
1.02815 0.986698 0.0 
1.01333 0.983386 0.0 
1.01811 0.982241 0.0 
1.06868 0.896376 0.0 
1.01268 0.985503 0.0 
1.05394 0.976445 0.0 
1.05188 0.979458 0.0 
1.01928 0.984899 0.0 
1.0518 0.981541 0.0 
1.06898 0.962924 0.0 
1.05033 0.963226 0.0 
1.06882 0.958439 0.0 
1.04378 0.978588 0.0 
1.05811 0.969877 0.0 
1.04999 0.973066 0.0 
1.01764 0.981763 0.0 
1.053 0.976829 0.0 
1.03305 0.98129 0.0 
1.02031 0.985111 0.0 
1.04407 0.973738 0.0 
1.0599 0.968434 0.0 
1.06399 0.967859 0.0 
1.04747 0.968903 0.0 
1.05307 0.968737 0.0 
1.01224 0.984296 0.0 
1.0237 0.970847 0.0 
1.02129 0.981178 0.0 
1.05242 0.938673 0.0 
1.03456 0.914802 0.0 
1.02748 0.975156 0.0 
1.01664 0.982257 0.0 
1.03179 0.973045 0.0 
1.04306 0.975957 0.0 
1.01552 0.985403 0.0 
1.04452 0.961625 0.0 
1.0228 0.943076 0.0 
1.04296 0.977906 0.0 
1.02991 0.966899 0.0 
1.03415 0.971822 0.0 
1.03585 0.96336 0.0 
1.0538 0.965201 0.0 
1.01656 0.958573 0.0 
1.01075 0.988416 0.0 
1.01807 0.927319 0.0 
1.05485 0.971776 0.0 
1.04837 0.96057 0.0 
1.04855 0.976159 0.0 
1.04959 0.977806 0.0 
1.04591 0.957131 0.0 
1.05275 0.968129 0.0 
1.01165 0.988183 0.0 
1.04338 0.978245 0.0 
1.01924 0.951124 0.0 
1.05467 0.974925 0.0 
1.02878 0.964335 0.0 
1.02127 0.987805 0.0 
1.06373 0.926857 0.0 
1.00719 0.909411 0.0 
1.03097 0.983743 0.0 
1.06088 0.965069 0.0 
1.01299 0.981441 0.0 
1.03566 0.971506 0.0 
1.04865 0.979721 0.0 
1.02635 0.908864 0.0 
1.0542 0.968041 0.0 
1.05354 0.948235 0.0 
1.05532 0.972918 0.0 
1.03907 0.983184 0.0 
1.02207 0.981113 0.0 
1.0363 0.974392 0.0 
1.00986 0.987518 0.0 
1.03856 0.982527 0.0 
1.06919 0.925619 0.0 
1.04612 0.975551 0.0 
1.03298 0.946354 0.0 
1.04846 0.981286 0.0 
1.02899 0.977423 0.0 
1.02696 0.895944 0.0 
1.02051 0.966514 0.0 
1.04371 0.976633 0.0 
1.05435 0.975752 0.0 
1.01764 0.986548 0.0 
1.04982 0.981818 0.0 
[...]
<PointData>
  <DataArray type = "Float64" Name="Vitesse" NumberOfComponents="3" format="ascii">
0 0 0.0 
0.697925 -0.126429 0.0 
0.621483 -0.110758 0.0 
1.02753 -0.148995 0.0 
1.05297 -0.0462832 0.0 
0.9366 -0.196894 0.0 
0.999773 -0.0279971 0.0 
0.920363 -0.200484 0.0 
0.972108 -0.252969 0.0 
1.11272 -0.11038 0.0 
0 0 0.0 
1.11002 -0.115514 0.0 
1.00374 -0.0306252 0.0 
1.10404 -0.0869202 0.0 
0.98477 -0.135514 0.0 
1.01691 -0.160555 0.0 
1.00839 -0.105527 0.0 
1.01793 -0.123707 0.0 
1.00017 -0.0362886 0.0 
0.905246 -0.200733 0.0 
1.0605 -0.197136 0.0 
0.880954 -0.17615 0.0 
1.07282 -0.137875 0.0 
0.997269 -0.0316244 0.0 
0.992733 -0.0853805 0.0 
0.986132 -0.259526 0.0 
0.960745 -0.16702 0.0 
0.879412 -0.219616 0.0 
0.926778 -0.213255 0.0 
1.01788 -0.111859 0.0 
1.00964 -0.0331372 0.0 
0.889361 -0.199263 0.0 
1.01163 -0.0376737 0.0 
0.983204 -0.262013 0.0 
1.00566 -0.0371099 0.0 
1.01245 -0.0440639 0.0 
0 0 0.0 
1.08311 -0.139048 0.0 
1.00367 -0.0989031 0.0 
1.02538 -0.159322 0.0 
0.572164 -0.0785575 0.0 
0.895163 -0.228974 0.0 
1.11793 -0.104436 0.0 
0.759379 -0.106386 0.0 
0.914752 -0.189655 0.0 
0.670452 -0.0932173 0.0 
0.150052 -0.0196792 0.0 
1.08269 -0.127805 0.0 
0.960213 -0.184629 0.0 
0.907414 -0.160472 0.0 
0.951909 -0.217126 0.0 
0.463217 -0.0621596 0.0 
1.05866 -0.0519334 0.0 
0.996796 -0.0402735 0.0 
0.0862177 -0.0100192 0.0 
1.0226 -0.0350378 0.0 
0.314319 -0.0420011 0.0 
0.342128 -0.0445523 0.0 
0.888199 -0.184818 0.0 
0.895952 -0.213255 0.0 
1.03869 -0.209587 0.0 
1.11242 -0.0997092 0.0 
1.01388 -0.233124 0.0 
1.05494 -0.13152 0.0 
0.922662 -0.246316 0.0 
0.796888 -0.10955 0.0 
1.05903 -0.143215 0.0 
1.00314 -0.166765 0.0 
1.00754 -0.0418312 0.0 
1.03698 -0.11201 0.0 
1.08214 -0.101382 0.0 
1.04621 -0.0484179 0.0 
0.991794 -0.223489 0.0 
0.991356 -0.247485 0.0 
0.977318 -0.220508 0.0 
1.05088 -0.188144 0.0 
0.934225 -0.154661 0.0 
1.00933 -0.092552 0.0 
0.829848 -0.25979 0.0 
1.07465 -0.141262 0.0 
1.07667 -0.187003 0.0 
0.860665 -0.14035 0.0 
1.01915 -0.242878 0.0 
1.06231 -0.209532 0.0 
0 0 0.0 
1.01747 -0.0392581 0.0 
1.04778 -0.164973 0.0 
1.02759 -0.11978 0.0 
0.110389 -0.0139078 0.0 
0.548545 -0.094558 0.0 
0.0811019 -0.0103123 0.0 
1.02917 -0.0371981 0.0 
1.07241 -0.175339 0.0 
0.909121 -0.237434 0.0 
0.885018 -0.287637 0.0 
1.02902 -0.216374 0.0 
1.03959 -0.0455237 0.0 
1.01213 -0.0589501 0.0 
1.04589 -0.175809 0.0 
0.989462 -0.101882 0.0 
0.58524 -0.130659 0.0 
1.0673 -0.143849 0.0 
1.01399 -0.244779 0.0 
1.02355 -0.242483 0.0 
0 0 0.0 
1.11432 -0.122902 0.0 
1.09303 -0.0853179 0.0 
1.0157 -0.210369 0.0 
0.981284 -0.245104 0.0 
1.00265 -0.233792 0.0 
0.965806 -0.133827 0.0 
1.03774 -0.219488 0.0 
0.214778 -0.0267592 0.0 
0 0 0.0 
1.11515 -0.106832 0.0 
0.789876 -0.134218 0.0 
0.981585 -0.149716 0.0 
1.05288 -0.142854 0.0 
0.234127 -0.0311668 0.0 
1.08429 -0.139243 0.0 
0.161995 -0.0203964 0.0 
0.978422 -0.1645 0.0 
1.085 -0.143197 0.0 
1.03822 -0.19675 0.0 
0.665828 -0.0960444 0.0 
1.00461 -0.00627 0.0 
1.01922 -0.0547131 0.0 
0.446571 -0.061519 0.0 
0.142398 -0.0220791 0.0 
1.08523 -0.0784336 0.0 
0.948153 -0.252781 0.0 
1.02404 -0.175563 0.0 
0.997871 -0.0787821 0.0 
1.11578 -0.106996 0.0 
0.979854 -0.115918 0.0 
0.995969 -0.0452387 0.0 
1.07672 -0.0792752 0.0 
0.265651 -0.0385772 0.0 
0.923091 -0.160001 0.0 
0 0 0.0 
0.225097 -0.0365551 0.0 
1.09955 -0.134841 0.0 
1.04693 -0.215996 0.0 
1.10545 -0.126219 0.0 
1.00758 -0.222608 0.0 
0.115357 -0.0173277 0.0 
0.840461 -0.140844 0.0 
1.05038 -0.0538119 0.0 
0.915058 -0.275767 0.0 
0.940494 -0.146819 0.0 
0.472872 -0.0739119 0.0 
0.99933 -0.155792 0.0 
0.974848 -0.128523 0.0 
0.988687 -0.16252 0.0 
1.05322 -0.121157 0.0 
0.9077 -0.143968 0.0 
1.09363 -0.142108 0.0 
0.305068 -0.0500059 0.0 
1.05062 -0.2043 0.0 
0.970832 -0.195268 0.0 
1.09479 -0.166639 0.0 
0.979635 -0.15571 0.0 
0.419424 -0.0665061 0.0 
0.15824 -0.0233727 0.0 
0.974471 -0.10726 0.0 
0.983574 -0.137739 0.0 
0.874433 -0.15605 0.0 
1.01395 -0.163086 0.0 
0.817017 -0.128374 0.0 
0.740703 -0.132246 0.0 
1.07752 -0.0724087 0.0 
0.266919 -0.0454387 0.0 
1.00196 -0.0422335 0.0 
1.02499 -0.133772 0.0 
0.648983 -0.103622 0.0 
0.949434 -0.160296 0.0 
0.516528 -0.0839749 0.0 
0.77032 -0.126695 0.0 
0.313439 -0.0529234 0.0 
0.21074 -0.0679257 0.0 
0.96286 -0.17583 0.0 
0.560688 -0.0791663 0.0 
0.631306 -0.095864 0.0 
1.11068 -0.135738 0.0 
0.628267 -0.114573 0.0 
0.874958 -0.140504 0.0 
0.899499 -0.151193 0.0 
1.0062 -0.151171 0.0 
0.791043 -0.127557 0.0 
0.987226 -0.225636 0.0 
0.267264 -0.0420822 0.0 
0.716254 -0.121022 0.0 
0.75026 -0.281893 0.0 
0.352868 -0.0537475 0.0 
0.892721 -0.129659 0.0 
0.95304 -0.155182 0.0 
1.08293 -0.178246 0.0 
0.429941 -0.0705788 0.0 
0.827812 -0.145443 0.0 
0.867219 -0.150219 0.0 
0.921302 -0.152044 0.0 
1.08538 -0.183541 0.0 
0.973028 -0.162389 0.0 
1.09213 -0.136897 0.0 
1.10751 -0.14421 0.0 
0.566132 -0.0889604 0.0 
0.97194 -0.148523 0.0 
1.0786 -0.146214 0.0 
0.715099 -0.117403 0.0 
1.02053 -0.224596 0.0 
0.446829 -0.0782027 0.0 
0.559044 -0.0899617 0.0 
0.611891 -0.09477 0.0 
0.498268 -0.0757036 0.0 
0.772947 -0.187992 0.0 
0.88406 -0.151296 0.0 
0.815277 -0.298058 0.0 
0.130299 -0.0214514 0.0 
0.991846 -0.0488396 0.0 
0.315633 -0.0495019 0.0 
0.663367 -0.116585 0.0 
0.875623 -0.293165 0.0 
1.10136 -0.142169 0.0 
0.545063 -0.0790927 0.0 
1.0243 -0.0419382 0.0 
1.01931 -0.0638607 0.0 
1.07931 -0.151274 0.0 
1.03173 -0.15465 0.0 
0.832022 -0.118158 0.0 
1.01903 -0.142793 0.0 
0 0 0.0 
0.970277 -0.140249 0.0 
0.866836 -0.279154 0.0 
0.436815 -0.0620854 0.0 
1.04658 -0.0732682 0.0 
1.06919 -0.20228 0.0 
1.05511 -0.0601382 0.0 
1.05923 -0.066248 0.0 
0.934529 -0.134465 0.0 
0.976922 -0.0904029 0.0 
0.338169 -0.0470289 0.0 
0.991269 -0.237595 0.0 
0.938724 -0.240006 0.0 
1.11036 -0.121793 0.0 
1.06372 -0.0586586 0.0 
0.851824 -0.118503 0.0 
1.00732 -0.146663 0.0 
0.853529 -0.295657 0.0 
0.839467 -0.296224 0.0 
0.917871 -0.177167 0.0 
1.03602 -0.0383252 0.0 
1.09032 -0.147713 0.0 
0.282095 -0.0395511 0.0 
0 0 0.0 
1.01882 -0.0468033 0.0 
0 0 0.0 
1.06951 -0.0665888 0.0 
0.55168 -0.147282 0.0 
0.937321 -0.223572 0.0 
1.09865 -0.13883 0.0 
0.990912 -0.113192 0.0 
0.818866 -0.297276 0.0 
0.827016 -0.275521 0.0 
0.992751 -0.257371 0.0 
0.955022 -0.14077 0.0 
1.08223 -0.0884088 0.0 
1.0668 -0.150049 0.0 
0.853191 -0.296298 0.0 
1.10541 -0.13233 0.0 
0.908476 -0.254227 0.0 
1.0652 -0.186227 0.0 
1.01815 -0.0988633 0.0 
1.01472 -0.186525 0.0 
1.09646 -0.0971374 0.0 
1.05536 -0.211362 0.0 
1.00109 -0.047021 0.0 
1.03812 -0.150036 0.0 
0.147107 -0.0283965 0.0 
1.0066 -0.19756 0.0 
1.06697 -0.148558 0.0 
0.58352 -0.0987964 0.0 
0.918741 -0.147272 0.0 
0.715073 -0.258844 0.0 
0.815955 -0.292008 0.0 
0.951252 -0.141035 0.0 
1.05317 -0.219785 0.0 
1.03972 -0.154693 0.0 
1.07053 -0.195559 0.0 
1.06463 -0.20225 0.0 
1.04188 -0.0539548 0.0 
0.521038 -0.189115 0.0 
1.04607 -0.146258 0.0 
1.03136 -0.0441111 0.0 
0.98262 -0.145993 0.0 
0.992636 -0.0696623 0.0 
0.985842 -0.189193 0.0 
0.73398 -0.293569 0.0 
1.02765 -0.237556 0.0 
0.752647 -0.109373 0.0 
0.173631 -0.0239186 0.0 
0.892518 -0.174786 0.0 
0.906413 -0.24054 0.0 
0.835878 -0.291606 0.0 
0.999427 -0.2421 0.0 
1.02562 -0.0496532 0.0 
0.983839 -0.106849 0.0 
0.41315 -0.0600112 0.0 
0.890759 -0.28156 0.0 
0.917496 -0.284415 0.0 
0.754866 -0.249747 0.0 
1.0577 -0.214766 0.0 
0.827321 -0.120775 0.0 
0.14285 -0.0204712 0.0 
1.00705 -0.0478733 0.0 
0.900008 -0.125937 0.0 
0.958833 -0.12867 0.0 
1.04589 -0.129256 0.0 
1.01302 -0.0511683 0.0 
0.916039 -0.278818 0.0 
0.875001 -0.282248 0.0 
0 0 0.0 
1.0355 -0.0623263 0.0 
1.11691 -0.109336 0.0 
0.510078 -0.203365 0.0 
0.998201 -0.126757 0.0 
1.10396 -0.137639 0.0 
0.793073 -0.202875 0.0 
0.723492 -0.275506 0.0 
1.04691 -0.142134 0.0 
0.755514 -0.279689 0.0 
0.934228 -0.255689 0.0 
0.839046 -0.286824 0.0 
0.651822 -0.096603 0.0 
0.942669 -0.131834 0.0 
0.789643 -0.300888 0.0 
1.07107 -0.0861694 0.0 
0.955194 -0.273093 0.0 
1.03717 -0.169408 0.0 
0.712601 -0.246745 0.0 
1.06385 -0.131966 0.0 
0.928603 -0.139984 0.0 
0.748228 -0.293659 0.0 
0.507932 -0.12029 0.0 
0.652332 -0.242122 0.0 
1.04585 -0.0615088 0.0 
0.880396 -0.195748 0.0 
0.672623 -0.28232 0.0 
0.67631 -0.23744 0.0 
0.997509 -0.0948072 0.0 
1.0305 -0.139949 0.0 
1.0472 -0.222808 0.0 
1.06859 -0.0770079 0.0 
0.609307 -0.224483 0.0 
0.943722 -0.272527 0.0 
0.922937 -0.282929 0.0 
0.733092 -0.245808 0.0 
1.10989 -0.128362 0.0 
0.996076 -0.142965 0.0 
0.894244 -0.247712 0.0 
0.870846 -0.292663 0.0 
1.04236 -0.081576 0.0 
1.0291 -0.16194 0.0 
0.938102 -0.135828 0.0 
0.893235 -0.289801 0.0 
0 0 0.0 
0.844737 -0.291196 0.0 
0.883171 -0.291715 0.0 
1.03338 -0.0523064 0.0 
0.808912 -0.300357 0.0 
0.75439 -0.114114 0.0 
0.38312 -0.0568771 0.0 
0.763927 -0.262466 0.0 
0 0 0.0 
1.11624 -0.112463 0.0 
1.08064 -0.165688 0.0 
1.10709 -0.108051 0.0 
0.73714 -0.153147 0.0 
1.08164 -0.151665 0.0 
1.03285 -0.181515 0.0 
0.888047 -0.289973 0.0 
0.730198 -0.113268 0.0 
0.719754 -0.192554 0.0 
0.715295 -0.242414 0.0 
1.03601 -0.210391 0.0 
1.09748 -0.145755 0.0 
1.09971 -0.130251 0.0 
1.08005 -0.191565 0.0 
1.09272 -0.172171 0.0 
0.827108 -0.293755 0.0 
0.964112 -0.22793 0.0 
0.906387 -0.285863 0.0 
1.04715 -0.10572 0.0 
1.01094 -0.0795294 0.0 
0.982381 -0.256619 0.0 
0.877331 -0.291572 0.0 
1.01018 -0.242619 0.0 
0.963626 -0.203934 0.0 
0.799576 -0.290826 0.0 
1.05797 -0.172423 0.0 
0.986052 -0.123931 0.0 
0.82715 -0.176444 0.0 
1.00005 -0.209758 0.0 
1.02365 -0.233689 0.0 
1.02622 -0.190557 0.0 
1.09469 -0.162128 0.0 
0.951115 -0.160562 0.0 
0.704007 -0.288328 0.0 
0.98664 -0.0926628 0.0 
1.04939 -0.161517 0.0 
1.0686 -0.161782 0.0 
0.879204 -0.160127 0.0 
0.688327 -0.118742 0.0 
1.05506 -0.155522 0.0 
1.09368 -0.172307 0.0 
0.701333 -0.282767 0.0 
0.783616 -0.16515 0.0 
0.970117 -0.141259 0.0 
0.886894 -0.134332 0.0 
0.994784 -0.197107 0.0 
0.236829 -0.0775925 0.0 
1.0503 -0.0788291 0.0 
0.984156 -0.0674098 0.0 
0.449618 -0.124387 0.0 
1.10864 -0.140028 0.0 
0.856192 -0.273675 0.0 
1.03158 -0.230113 0.0 
0.433259 -0.0738301 0.0 
1.00209 -0.0728209 0.0 
1.0964 -0.167061 0.0 
1.06062 -0.121863 0.0 
1.00465 -0.152066 0.0 
0.149442 -0.0352736 0.0 
0.907609 -0.284052 0.0 
1.02439 -0.240868 0.0 
0.753363 -0.301128 0.0 
0.311288 -0.0744854 0.0 
1.05434 -0.0724185 0.0 
0.954425 -0.186821 0.0 
1.0101 -0.134731 0.0 
0.15234 -0.0245604 0.0 
0.975407 -0.265258 0.0 
1.00331 -0.0615731 0.0 
0.953248 -0.200139 0.0 
0.916544 -0.191367 0.0 
0.818854 -0.12378 0.0 
0.657959 -0.2352 0.0 
0 0 0.0 
1.10159 -0.151405 0.0 
0.751882 -0.262192 0.0 
1.05858 -0.151803 0.0 
0.988205 -0.0606932 0.0 
1.08383 -0.156562 0.0 
1.0528 -0.0863926 0.0 
1.07218 -0.155577 0.0 
0.451327 -0.192167 0.0 
0.733162 -0.260339 0.0 
1.1049 -0.150263 0.0 
0.260465 -0.0640845 0.0 
0.366886 -0.0696485 0.0 
1.08793 -0.181556 0.0 
1.00183 -0.0861784 0.0 
0.815134 -0.29986 0.0 
0.954638 -0.261386 0.0 
1.05463 -0.156215 0.0 
0.70308 -0.111663 0.0 
0.8579 -0.133005 0.0 
0.850275 -0.293909 0.0 
0.58078 -0.142858 0.0 
0.799997 -0.30076 0.0 
0.731959 -0.13707 0.0 
0.9951 -0.192826 0.0 
0.668689 -0.185639 0.0 
0.415502 -0.157676 0.0 
0.961474 -0.268223 0.0 
1.0764 -0.167989 0.0 
0.881403 -0.285723 0.0 
1.01223 -0.177307 0.0 
0.877127 -0.219129 0.0 
0 0 0.0 
1.09812 -0.162853 0.0 
0 0 0.0 
1.03412 -0.231293 0.0 
0.137927 -0.0385405 0.0 
0.562298 -0.152132 0.0 
0.609965 -0.241231 0.0 
1.02278 -0.231715 0.0 
0.890762 -0.166138 0.0 
0.772712 -0.142418 0.0 
0.563633 -0.202168 0.0 
0.835817 -0.293893 0.0 
0.941233 -0.210057 0.0 
1.04293 -0.166475 0.0 
0.82609 -0.298243 0.0 
0 0 0.0 
0.910335 -0.286289 0.0 
0.764205 -0.299954 0.0 
0.98849 -0.0765435 0.0 
0.934713 -0.278365 0.0 
0.785475 -0.298833 0.0 
0.733385 -0.193364 0.0 
0.859715 -0.228973 0.0 
0.681137 -0.151566 0.0 
0.92271 -0.18784 0.0 
0.945504 -0.276704 0.0 
0.441243 -0.0812766 0.0 
1.10401 -0.151213 0.0 
0.96272 -0.266541 0.0 
0.810315 -0.285446 0.0 
0.843238 -0.296974 0.0 
0.849511 -0.233232 0.0 
1.11444 -0.116233 0.0 
1.08634 -0.16626 0.0 
0.978028 -0.219589 0.0 
0.78583 -0.187466 0.0 
1.07831 -0.19456 0.0 
1.03665 -0.12508 0.0 
1.11578 -0.116553 0.0 
1.09775 -0.155795 0.0 
0.787887 -0.292064 0.0 
0.911594 -0.220317 0.0 
0.720153 -0.169345 0.0 
0.897769 -0.276195 0.0 
1.01884 -0.0862718 0.0 
0.902048 -0.184363 0.0 
0.585491 -0.218766 0.0 
0.666413 -0.151309 0.0 
0.992023 -0.181833 0.0 
0.693558 -0.268317 0.0 
0.745765 -0.287215 0.0 
1.07578 -0.197421 0.0 
0.990892 -0.169073 0.0 
1.10145 -0.138649 0.0 
0.791127 -0.15291 0.0 
1.04253 -0.229467 0.0 
0.837806 -0.288152 0.0 
0.969102 -0.230575 0.0 
0.856993 -0.224631 0.0 
0.606777 -0.236272 0.0 
0.924088 -0.229832 0.0 
0.775608 -0.276979 0.0 
0.844599 -0.199865 0.0 
0.787265 -0.276289 0.0 
1.05069 -0.222165 0.0 
0.776051 -0.221151 0.0 
0.992618 -0.158071 0.0 
0.879205 -0.237461 0.0 
1.05894 -0.18366 0.0 
1.094 -0.122498 0.0 
0 0 0.0 
1.03817 -0.0717 0.0 
0.998425 -0.104714 0.0 
0.950612 -0.267819 0.0 
0.720275 -0.296935 0.0 
0.860908 -0.195654 0.0 
0.197624 -0.0625144 0.0 
0.981724 -0.236293 0.0 
0.883841 -0.169087 0.0 
1.05117 -0.21086 0.0 
0.944562 -0.147436 0.0 
0.859702 -0.216798 0.0 
0.602265 -0.151357 0.0 
0.919515 -0.167292 0.0 
0.55767 -0.232919 0.0 
0.904558 -0.232944 0.0 
0.907918 -0.255181 0.0 
0.530985 -0.208697 0.0 
0.864187 -0.200289 0.0 
0.852233 -0.291409 0.0 
1.02707 -0.092768 0.0 
0.723201 -0.182827 0.0 
0 0 0.0 
0.868066 -0.270014 0.0 
0.76603 -0.278488 0.0 
0 0 0.0 
0.425282 -0.0978834 0.0 
0.665785 -0.261184 0.0 
1.05873 -0.103338 0.0 
1.05955 -0.213606 0.0 
0.432029 -0.135654 0.0 
0.501793 -0.188907 0.0 
0.992364 -0.0552422 0.0 
0.482675 -0.186714 0.0 
0.796494 -0.298904 0.0 
0.53042 -0.108064 0.0 
0.817764 -0.264174 0.0 
0.456558 -0.169203 0.0 
0.772285 -0.295473 0.0 
1.01898 -0.241518 0.0 
1.10248 -0.155824 0.0 
0.731432 -0.213447 0.0 
0.881066 -0.216108 0.0 
1.01945 -0.0744724 0.0 
0.96111 -0.183829 0.0 
1.02857 -0.191996 0.0 
0.404592 -0.0714321 0.0 
0.959469 -0.193383 0.0 
0.520572 -0.0989631 0.0 
0.9923 -0.232009 0.0 
0.452745 -0.124016 0.0 
0.536124 -0.0950314 0.0 
1.01118 -0.233676 0.0 
0.905188 -0.287127 0.0 
0.955907 -0.271458 0.0 
0.327631 -0.0884392 0.0 
1.06551 -0.187473 0.0 
0.902071 -0.266351 0.0 
1.03944 -0.188147 0.0 
1.04255 -0.228093 0.0 
0.278022 -0.0787378 0.0 
0.933112 -0.198166 0.0 
0.856351 -0.194147 0.0 
1.10113 -0.157817 0.0 
0.549933 -0.210479 0.0 
0.601929 -0.227717 0.0 
0 0 0.0 
0.908557 -0.177335 0.0 
0.789963 -0.211116 0.0 
0.845529 -0.244911 0.0 
0.840066 -0.297805 0.0 
0.992245 -0.200096 0.0 
1.00086 -0.183531 0.0 
1.08954 -0.170741 0.0 
0.757941 -0.205679 0.0 
0.125731 -0.0310282 0.0 
0.145936 -0.0411292 0.0 
0.922567 -0.274022 0.0 
0.490217 -0.0948946 0.0 
1.06484 -0.11214 0.0 
0.282086 -0.0503268 0.0 
0.951121 -0.273979 0.0 
0.965627 -0.221453 0.0 
0.410596 -0.0832463 0.0 
1.04729 -0.178565 0.0 
0.928745 -0.269716 0.0 
0.929086 -0.243225 0.0 
0.833554 -0.273529 0.0 
0.607844 -0.146555 0.0 
1.03612 -0.0990932 0.0 
0.859938 -0.274505 0.0 
0 0 0.0 
1.01576 -0.207616 0.0 
1.11199 -0.130027 0.0 
0.787676 -0.299806 0.0 
0.964198 -0.269771 0.0 
0.986388 -0.261738 0.0 
1.08867 -0.169542 0.0 
0.902615 -0.280779 0.0 
0.677957 -0.185191 0.0 
0 0 0.0 
0.948914 -0.205305 0.0 
0.946357 -0.214126 0.0 
0.923979 -0.28001 0.0 
0.289862 -0.07586 0.0 
1.08625 -0.183093 0.0 
0.928077 -0.185667 0.0 
1.07473 -0.196604 0.0 
0.916409 -0.278672 0.0 
0.983518 -0.253357 0.0 
0.830779 -0.295893 0.0 
0.395032 -0.130572 0.0 
0.627825 -0.25659 0.0 
0.813007 -0.289902 0.0 
0.883674 -0.269881 0.0 
0.686181 -0.167695 0.0 
1.03032 -0.204833 0.0 
0 0 0.0 
1.08844 -0.176948 0.0 
1.00054 -0.248263 0.0 
0.931118 -0.143382 0.0 
0.895306 -0.268281 0.0 
0.635649 -0.11939 0.0 
1.03405 -0.0778545 0.0 
1.08983 -0.159668 0.0 
0.931072 -0.278653 0.0 
0.981099 -0.210569 0.0 
0.643802 -0.194353 0.0 
1.089 -0.176704 0.0 
0 0 0.0 
1.03154 -0.237244 0.0 
0.770593 -0.301273 0.0 
1.07802 -0.18016 0.0 
0.885981 -0.281722 0.0 
0.248174 -0.0371277 0.0 
0.340418 -0.093224 0.0 
0.92776 -0.205506 0.0 
0.642829 -0.180667 0.0 
0 0 0.0 
0.752803 -0.186732 0.0 
0.797599 -0.186354 0.0 
0.704011 -0.168841 0.0 
0.84627 -0.283001 0.0 
0.923211 -0.280642 0.0 
0.974133 -0.259748 0.0 
1.06617 -0.19355 0.0 
1.01623 -0.200334 0.0 
0.411124 -0.160662 0.0 
0 0 0.0 
0.940506 -0.272552 0.0 
0.858867 -0.294585 0.0 
1.08208 -0.173278 0.0 
0.326364 -0.0728524 0.0 
0.845034 -0.273677 0.0 
0.227482 -0.0504189 0.0 
0.919438 -0.270735 0.0 
0.0929564 -0.0251384 0.0 
1.10431 -0.118042 0.0 
0.805387 -0.297969 0.0 
0.883517 -0.290973 0.0 
0.275271 -0.0478297 0.0 
0.754898 -0.208733 0.0 
0.202601 -0.0597303 0.0 
0 0 0.0 
0.829446 -0.298972 0.0 
1.0152 -0.218204 0.0 
0.37349 -0.121318 0.0 
0 0 0.0 
0.556943 -0.10417 0.0 
0.882519 -0.176221 0.0 
0.957968 -0.149257 0.0 
1.02495 -0.214787 0.0 
0.969035 -0.242068 0.0 
0 0 0.0 
1.02723 -0.0808036 0.0 
0.969103 -0.226865 0.0 
1.02671 -0.0584701 0.0 
0.896763 -0.288974 0.0 
0 0 0.0 
0 0 0.0 
0.744735 -0.209041 0.0 
0.216878 -0.0737341 0.0 
0.322717 -0.0623373 0.0 
0.388174 -0.161998 0.0 
0.521293 -0.191897 0.0 
0 0 0.0 
1.00674 -0.188769 0.0 
0.733382 -0.22931 0.0 
0.690471 -0.259814 0.0 
0.650816 -0.249794 0.0 
0.319519 -0.0812743 0.0 
0.927414 -0.184653 0.0 
0.826794 -0.288674 0.0 
0.860556 -0.28002 0.0 
0.864529 -0.289654 0.0 
0.805963 -0.277613 0.0 
0.134324 -0.0302056 0.0 
0.581458 -0.185777 0.0 
1.00981 -0.228599 0.0 
0.966025 -0.243021 0.0 
0.269683 -0.0490993 0.0 
0.554535 -0.153975 0.0 
1.10221 -0.146345 0.0 
0.802763 -0.223358 0.0 
0.37735 -0.0889031 0.0 
1.0647 -0.20822 0.0 
0.272207 -0.0547187 0.0 
0.80673 -0.298019 0.0 
0.539844 -0.112648 0.0 
1.08093 -0.183873 0.0 
1.05909 -0.205034 0.0 
1.03572 -0.232129 0.0 
0.180514 -0.0596082 0.0 
1.08284 -0.185066 0.0 
0.399461 -0.11289 0.0 
0.956479 -0.247759 0.0 
0.841988 -0.220567 0.0 
0.15514 -0.0559489 0.0 
1.05073 -0.20015 0.0 
0.979289 -0.232858 0.0 
0.648546 -0.26911 0.0 
0.992628 -0.258634 0.0 
0.972753 -0.266496 0.0 
0.861503 -0.291735 0.0 
0.681628 -0.214766 0.0 
1.07138 -0.175046 0.0 
0.893854 -0.227253 0.0 
0.959973 -0.25677 0.0 
1.04669 -0.226225 0.0 
0 0 0.0 
0.543784 -0.220928 0.0 
0.43754 -0.117062 0.0 
0.936415 -0.268196 0.0 
0 0 0.0 
0.91884 -0.271254 0.0 
0.895639 -0.284488 0.0 
0.937503 -0.169035 0.0 
0.582645 -0.118009 0.0 
0.284981 -0.0738787 0.0 
0.912298 -0.248017 0.0 
1.06811 -0.206392 0.0 
0.398349 -0.0744011 0.0 
0 0 0.0 
0.795775 -0.244142 0.0 
0.948888 -0.230089 0.0 
0.856306 -0.166269 0.0 
0.487257 -0.103218 0.0 
0.149823 -0.0361744 0.0 
0.865875 -0.293626 0.0 
0.715005 -0.279675 0.0 
1.02086 -0.236659 0.0 
0.295024 -0.0930583 0.0 
0.699845 -0.238724 0.0 
0.810182 -0.236919 0.0 
0.952594 -0.269441 0.0 
0 0 0.0 
1.09347 -0.169309 0.0 
0.487704 -0.143704 0.0 
0.566819 -0.155319 0.0 
0.134525 -0.0461564 0.0 
0.144873 -0.0514844 0.0 
1.09108 -0.15377 0.0 
0.951956 -0.272047 0.0 
0.876836 -0.189957 0.0 
0.980122 -0.0996228 0.0 
0.946771 -0.265926 0.0 
0.716156 -0.138483 0.0 
0.21237 -0.0865787 0.0 
1.00536 -0.251597 0.0 
1.06858 -0.198728 0.0 
0.131975 -0.0409755 0.0 
0.391958 -0.0860326 0.0 
1.05729 -0.212442 0.0 
0.867226 -0.294425 0.0 
0.863102 -0.179739 0.0 
0.966757 -0.211256 0.0 
0.926311 -0.177118 0.0 
0.894101 -0.265161 0.0 
1.08053 -0.16156 0.0 
1.10188 -0.150237 0.0 
0.624331 -0.119779 0.0 
0.96487 -0.252932 0.0 
0.764048 -0.2454 0.0 
0.611751 -0.130423 0.0 
1.00533 -0.212941 0.0 
1.05338 -0.0962727 0.0 
0.349479 -0.117181 0.0 
1.07312 -0.193302 0.0 
0.832451 -0.240504 0.0 
1.06612 -0.207976 0.0 
0.452455 -0.134737 0.0 
0.865053 -0.239054 0.0 
0.6205 -0.103159 0.0 
0.647654 -0.149915 0.0 
0.792417 -0.228795 0.0 
0.980157 -0.263427 0.0 
0.855417 -0.281511 0.0 
0.158116 -0.0403817 0.0 
0.436431 -0.129778 0.0 
1.07254 -0.201318 0.0 
1.05304 -0.221011 0.0 
0.95008 -0.22978 0.0 
0.999393 -0.0524971 0.0 
0.758272 -0.207672 0.0 
0.854307 -0.288727 0.0 
0 0 0.0 
0.672151 -0.167063 0.0 
0.846601 -0.24209 0.0 
1.04797 -0.224786 0.0 
0.733056 -0.226652 0.0 
0.844118 -0.27595 0.0 
0.607868 -0.200019 0.0 
0.918226 -0.245846 0.0 
0.689377 -0.22558 0.0 
0.513796 -0.171178 0.0 
0.894774 -0.285004 0.0 