<VTKFile type="UnstructuredGrid" version="0.1" byte_order="LittleEndian">
  <UnstructuredGrid>
    <Piece NumberOfPoints="16468" NumberOfCells="32462">
      <Points>
        <DataArray type = "Float64" NumberOfComponents="3" format="ascii">
1.02049 1.00053 0.0 
1.07889 0.997078 0.0 
1.0171 0.997846 0.0 
1.06312 0.991385 0.0 
1.04031 0.998837 0.0 
1.01382 0.995225 0.0 
1.07557 0.998541 0.0 
1.01459 0.994954 0.0 
1.06966 0.945098 0.0 
1.01536 0.996142 0.0 
1.01866 1.00032 0.0 
1.01451 0.996426 0.0 
1.0434 0.997622 0.0 
1.01612 0.997583 0.0 
1.03883 1.00101 0.0 
1.01554 1.0013 0.0 
1.01575 1.00076 0.0 
1.04511 0.998327 0.0 
1.01603 0.994925 0.0 
1.07256 0.970222 0.0 
1.06181 0.99221 0.0 
1.0381 0.993531 0.0 
1.05545 0.935861 0.0 
1.0541 0.981039 0.0 
1.01199 0.993652 0.0 
1.0155 0.999019 0.0 
1.01339 0.994217 0.0 
1.06653 0.998706 0.0 
1.07483 0.998729 0.0 
1.07832 0.963777 0.0 
1.0324 0.992854 0.0 
1.02052 1.00177 0.0 
1.01719 0.995717 0.0 
1.07093 0.957308 0.0 
1.04175 0.990224 0.0 
1.0342 0.997 0.0 
1.06503 0.995252 0.0 
1.07201 1.00039 0.0 
1.02129 1.0005 0.0 
1.06547 0.996683 0.0 
1.01474 0.99373 0.0 
1.07313 0.961881 0.0 
1.04976 0.985299 0.0 
1.04393 0.989035 0.0 
1.01594 0.994159 0.0 
1.07537 0.997589 0.0 
1.0518 0.940962 0.0 
1.04435 0.99378 0.0 
1.03607 0.999968 0.0 
1.07018 0.996963 0.0 
1.01463 0.994311 0.0 
1.06522 0.963222 0.0 
1.05086 0.928644 0.0 
1.01219 0.993007 0.0 
1.07608 0.997739 0.0 
1.03936 1.00256 0.0 
1.06869 0.975661 0.0 
1.01532 0.993887 0.0 
1.04218 0.991951 0.0 
1.03994 0.997745 0.0 
1.07395 0.972728 0.0 
1.03178 0.996419 0.0 
1.03423 0.995344 0.0 
1.06702 1.00106 0.0 
1.01428 0.993326 0.0 
1.07475 0.995779 0.0 
1.01118 0.992595 0.0 
1.05304 0.989409 0.0 
1.0725 0.997333 0.0 
1.01662 0.994501 0.0 
1.01277 0.996001 0.0 
1.02111 1.00182 0.0 
1.01786 0.995615 0.0 
1.03433 0.996101 0.0 
1.00827 0.99189 0.0 
1.05346 0.990155 0.0 
1.01575 0.99838 0.0 
1.02014 0.999083 0.0 
1.01378 0.99749 0.0 
1.01943 0.997983 0.0 
1.01411 1.00049 0.0 
1.01492 1.00123 0.0 
1.01935 0.999524 0.0 
1.04619 0.996231 0.0 
1.06855 0.99686 0.0 
1.06129 0.945352 0.0 
1.01272 0.996668 0.0 
1.01359 0.996697 0.0 
1.01436 0.999872 0.0 
1.06831 0.999421 0.0 
1.01203 0.994741 0.0 
1.04779 0.989167 0.0 
1.06485 0.938072 0.0 
1.04512 0.992937 0.0 
1.07603 0.999036 0.0 
1.06382 0.993104 0.0 
1.01262 0.994106 0.0 
1.06669 0.980352 0.0 
1.02872 0.993759 0.0 
1.02713 1.00092 0.0 
1.06863 1.00131 0.0 
1.05771 0.986826 0.0 
1.03918 0.995458 0.0 
1.05199 0.988543 0.0 
1.04598 0.988557 0.0 
1.04834 1.00093 0.0 
1.01372 0.999924 0.0 
1.06704 1.0005 0.0 
1.01225 0.991584 0.0 
1.03321 0.996477 0.0 
1.00743 0.985255 0.0 
1.0416 0.997519 0.0 
1.04075 0.996529 0.0 
1.02062 0.99292 0.0 
1.03333 1.00167 0.0 
1.00727 0.983012 0.0 
1.01008 0.989152 0.0 
1.03385 0.999245 0.0 
1.08535 0.994999 0.0 
1.03029 0.998993 0.0 
1.05189 0.989246 0.0 
1.06766 1.00153 0.0 
1.06773 1.00084 0.0 
1.02699 0.999101 0.0 
1.03721 1.00252 0.0 
1.03649 1.00251 0.0 
1.05042 0.989145 0.0 
1.04241 0.996803 0.0 
1.02305 0.999895 0.0 
1.03698 0.994859 0.0 
1.02224 0.994011 0.0 
1.03423 1.0014 0.0 
0.995404 0.975411 0.0 
1.07173 0.99884 0.0 
1.02329 0.99055 0.0 
1.02754 1.00002 0.0 
1.06567 0.999469 0.0 
1.01002 0.984272 0.0 
1.01315 0.995439 0.0 
1.01072 0.993494 0.0 
1.0696 1.00107 0.0 
1.04224 0.995778 0.0 
1.01679 1.00143 0.0 
1.02912 0.999903 0.0 
1.0301 0.996366 0.0 
1.01569 0.999669 0.0 
1.07 0.978241 0.0 
1.01688 0.993285 0.0 
1.02066 0.99353 0.0 
1.02643 0.990647 0.0 
1.05699 0.991637 0.0 
1.02449 0.995692 0.0 
1.03524 0.999426 0.0 
1.07081 1.00074 0.0 
1.07343 0.997695 0.0 
1.04172 0.998263 0.0 
1.02925 1.00229 0.0 
1.0694 0.999343 0.0 
1.03574 1.00249 0.0 
1.01893 0.983762 0.0 
1.06539 0.993987 0.0 
1.0208 0.998708 0.0 
1.0786 0.998041 0.0 
1.03522 1.00162 0.0 
1.04451 0.988113 0.0 
1.04582 0.985834 0.0 
1.04208 0.999268 0.0 
1.0292 0.982991 0.0 
1.04014 0.989099 0.0 
1.03246 0.990881 0.0 
1.06771 0.998822 0.0 
1.0441 0.983682 0.0 
1.03905 0.988716 0.0 
1.07753 0.997786 0.0 
1.0554 0.985597 0.0 
1.0373 1.00066 0.0 
1.03916 0.999415 0.0 
1.03378 0.998096 0.0 
1.07603 0.995978 0.0 
1.0093 0.986355 0.0 
1.02642 0.993986 0.0 
1.06298 0.996624 0.0 
1.0795 0.996917 0.0 
1.08866 0.993314 0.0 
1.02665 0.989804 0.0 
1.01245 0.995265 0.0 
1.0225 1.00128 0.0 
1.05957 0.991439 0.0 
1.04224 0.988842 0.0 
1.02528 0.995104 0.0 
1.04159 0.989576 0.0 
1.02851 1.00143 0.0 
1.07344 0.966207 0.0 
1.02116 0.990633 0.0 
1.05369 1.00256 0.0 
1.04105 0.988389 0.0 
1.04968 0.987965 0.0 
1.03354 0.990582 0.0 
1.02314 0.998919 0.0 
1.02151 0.998198 0.0 
1.04878 1.00201 0.0 
1.06541 0.957495 0.0 
1.01515 0.997746 0.0 
1.04892 0.982768 0.0 
1.03349 0.994795 0.0 
1.04357 0.99476 0.0 
1.05068 1.00007 0.0 
1.0311 0.987535 0.0 
1.04487 0.987423 0.0 
1.01437 0.99216 0.0 
1.04903 0.99727 0.0 
1.04773 0.98857 0.0 
1.04806 0.956973 0.0 
1.04345 0.986979 0.0 
1.03035 0.992706 0.0 
1.01661 0.993818 0.0 
1.0353 0.993239 0.0 
1.03135 0.993152 0.0 
1.07988 0.996373 0.0 
1.03876 0.994381 0.0 
1.01777 0.992781 0.0 
1.05974 0.997483 0.0 
1.00726 0.987115 0.0 
1.03142 0.990712 0.0 
1.02676 0.996769 0.0 
1.04768 0.987146 0.0 
1.03894 1.00018 0.0 
1.02787 0.990189 0.0 
1.02 0.994886 0.0 
1.07763 0.996557 0.0 
1.03932 0.987787 0.0 
1.03235 0.988535 0.0 
1.01313 0.997195 0.0 
1.0424 0.987751 0.0 
1.04225 0.986534 0.0 
1.0434 0.985325 0.0 
1.03985 0.98668 0.0 
1.04792 0.987759 0.0 
1.01476 0.98798 0.0 
1.02584 0.996001 0.0 
1.0456 0.999151 0.0 
1.02817 0.985265 0.0 
1.0307 0.999931 0.0 
1.01356 0.989461 0.0 
1.0402 1.00059 0.0 
1.05225 0.980112 0.0 
1.01171 0.989819 0.0 
1.02443 1.00205 0.0 
1.00243 0.979624 0.0 
0.995115 0.971019 0.0 
1.03657 0.993433 0.0 
1.05288 1.00257 0.0 
1.01214 0.992328 0.0 
1.01751 0.993632 0.0 
1.05939 0.983908 0.0 
1.01071 0.992127 0.0 
1.01456 0.995666 0.0 
1.04903 0.984405 0.0 
1.01981 0.990214 0.0 
1.00979 0.974938 0.0 
1.07115 0.999317 0.0 
1.06895 1.00002 0.0 
1.04403 0.999199 0.0 
1.04713 0.997837 0.0 
1.01583 0.98933 0.0 
1.0117 0.994379 0.0 
1.05121 1.00258 0.0 
1.01314 0.992586 0.0 
1.04795 1.00023 0.0 
1.02632 0.998482 0.0 
1.05861 1.00204 0.0 
1.03863 0.990978 0.0 
1.03562 0.995599 0.0 
1.05927 1.00248 0.0 
1.0594 0.998315 0.0 
1.05906 0.999052 0.0 
1.08655 0.994402 0.0 
1.03884 1.00176 0.0 
1.05881 1.00156 0.0 
1.08472 0.995307 0.0 
0.999811 0.97267 0.0 
1.02747 0.993691 0.0 
1.0366 0.999065 0.0 
1.02994 0.99413 0.0 
1.06883 0.998553 0.0 
1.02285 0.994719 0.0 
1.02073 0.994626 0.0 
1.0143 1.00115 0.0 
1.02118 0.997215 0.0 
1.07799 0.997132 0.0 
1.02305 0.996568 0.0 
1.05662 0.992361 0.0 
0.999296 0.976914 0.0 
1.05129 1.00216 0.0 
1.06048 0.99888 0.0 
1.02187 0.999824 0.0 
1.04903 0.990268 0.0 
1.02947 0.986358 0.0 
1.01483 0.986015 0.0 
1.01626 0.995779 0.0 
1.04783 0.991502 0.0 
1.01817 0.989603 0.0 
1.06448 0.974489 0.0 
1.06601 0.978816 0.0 
1.00917 0.991439 0.0 
1.07343 0.975182 0.0 
1.07767 0.998413 0.0 
1.05158 0.993024 0.0 
1.05121 0.996441 0.0 
1.03085 1.00065 0.0 
1.01876 0.987778 0.0 
1.05982 0.999802 0.0 
1.0591 1.00086 0.0 
1.02952 1.0008 0.0 
1.06795 0.971769 0.0 
1.06148 0.997215 0.0 
1.05818 0.996929 0.0 
1.0214 0.989333 0.0 
1.06094 0.998073 0.0 
1.03618 0.99191 0.0 
1.05483 0.997722 0.0 
1.01803 0.990688 0.0 
1.07036 0.973557 0.0 
1.04748 0.99018 0.0 
1.06159 0.971342 0.0 
1.03967 1.0021 0.0 
1.02525 1.0021 0.0 
1.06128 0.999467 0.0 
1.056 0.99667 0.0 
1.0162 0.979719 0.0 
1.01373 0.98354 0.0 
1.00643 0.980181 0.0 
1.0578 0.993198 0.0 
1.05488 1.00179 0.0 
1.01734 0.986765 0.0 
1.02903 0.994648 0.0 
1.02812 0.988664 0.0 
1.05209 0.990793 0.0 
1.04704 0.986462 0.0 
1.06043 0.996498 0.0 
1.02411 0.998472 0.0 
1.03515 0.991641 0.0 
1.03155 0.992402 0.0 
1.05627 0.994241 0.0 
1.04835 1.0026 0.0 
1.02258 0.995989 0.0 
1.05953 0.994312 0.0 
1.05959 1.00188 0.0 
1.01024 0.99056 0.0 
1.05801 0.997867 0.0 
1.05379 0.990911 0.0 
1.02461 0.990074 0.0 
1.06219 0.978984 0.0 
1.01803 0.998082 0.0 
1.05411 0.966314 0.0 
1.04653 0.993528 0.0 
1.04594 0.990679 0.0 
1.05361 0.988635 0.0 
1.06572 0.981623 0.0 
0.991022 0.966746 0.0 
1.02559 0.989124 0.0 
1.0217 0.987328 0.0 
1.05774 0.989763 0.0 
1.08915 0.993051 0.0 
1.02471 0.994328 0.0 
1.04758 0.990815 0.0 
1.02903 0.997101 0.0 
1.05519 1.00097 0.0 
1.05525 1.00013 0.0 
1.0627 1.00056 0.0 
1.05191 0.989969 0.0 
1.03265 1.00195 0.0 
1.06139 1.00031 0.0 
1.04885 0.98946 0.0 
1.07026 0.964625 0.0 
1.05631 0.999233 0.0 
1.03176 0.991532 0.0 
1.00954 0.978498 0.0 
1.01058 0.981527 0.0 
1.03503 0.990175 0.0 
1.04679 0.98983 0.0 
1.0416 1.00026 0.0 
1.04219 0.993847 0.0 
1.03504 0.994764 0.0 
1.05531 1.00254 0.0 
1.04207 0.992552 0.0 
1.06053 1.00245 0.0 
1.06192 1.001 0.0 
1.06501 1.00015 0.0 
1.05616 0.998316 0.0 
1.01257 0.990598 0.0 
1.01382 0.992942 0.0 
1.02009 0.996979 0.0 
1.0545 1.00255 0.0 
1.02423 0.990856 0.0 
1.04376 0.992378 0.0 
1.04973 0.991612 0.0 
1.05448 0.995409 0.0 
1.03051 1.00167 0.0 
1.0242 0.999935 0.0 
1.02402 0.996899 0.0 
1.05039 0.989775 0.0 
1.06045 1.00173 0.0 
1.04406 0.996554 0.0 
1.0568 0.997428 0.0 
1.01333 0.993638 0.0 
1.05347 0.996981 0.0 
1.06268 1.00127 0.0 
1.05145 0.991545 0.0 
1.04278 0.922638 0.0 
1.02541 0.990477 0.0 
1.06069 0.984406 0.0 
1.06347 0.99866 0.0 
1.06517 0.992023 0.0 
1.06204 0.980842 0.0 
1.03422 0.9871 0.0 
1.03608 0.990491 0.0 
1.01246 0.987981 0.0 
1.06252 0.997831 0.0 
1.01024 0.993064 0.0 
1.01896 0.99308 0.0 
1.00878 0.988049 0.0 
1.0085 0.99071 0.0 
1.04696 0.994843 0.0 
1.02594 0.99449 0.0 
1.09097 0.992071 0.0 
1.02567 1.00142 0.0 
1.04962 0.993908 0.0 
0.981375 0.954781 0.0 
1.06822 0.994455 0.0 
1.01498 0.99262 0.0 
1.02949 0.989803 0.0 
1.01859 0.996837 0.0 
1.04861 0.996141 0.0 
1.01622 0.992339 0.0 
1.05268 0.998193 0.0 
1.02217 0.990675 0.0 
1.01285 0.993322 0.0 
1.01922 0.995208 0.0 
1.02272 0.989811 0.0 
1.03114 0.99559 0.0 
1.05066 0.995129 0.0 
1.02179 0.995507 0.0 
1.01404 0.999132 0.0 
1.0084 0.989444 0.0 
1.0174 0.998741 0.0 
1.05306 0.994033 0.0 
1.05519 0.990941 0.0 
1.01879 0.991969 0.0 
1.05892 0.992346 0.0 
1.0314 0.990063 0.0 
[...]
<PointData>
  <DataArray type = "Float64" Name="Vitesse" NumberOfComponents="3" format="ascii">
0.0958605 0.00609503 0.0 
0.0467821 -0.0184584 0.0 
0.368084 0.0123876 0.0 
0.508967 -0.07439 0.0 
0.2221 -0.00429034 0.0 
0.692954 -0.0122647 0.0 
0.0314275 -0.0109273 0.0 
0.706497 -0.0144786 0.0 
0.932481 -0.136835 0.0 
0.580787 0.000858552 0.0 
0.106353 0.00783929 0.0 
0.557568 0.00363552 0.0 
0.291988 -0.0107818 0.0 
0.403583 0.0123917 0.0 
0.0857592 0.000157999 0.0 
0 0 0.0 
0.0481663 0.00492056 0.0 
0.238139 -0.00847702 0.0 
0.691359 -0.0128187 0.0 
0.869936 -0.178622 0.0 
0.47903 -0.0647421 0.0 
0.599935 -0.0329641 0.0 
0.930849 -0.104939 0.0 
0.828684 -0.114444 0.0 
0.820085 -0.0389586 0.0 
0.229306 0.0145964 0.0 
0.775404 -0.0270498 0.0 
0.11043 -0.0175502 0.0 
0.0337025 -0.0111722 0.0 
0.902378 -0.189526 0.0 
0.680835 -0.0335236 0.0 
0 0 0.0 
0.605994 -0.00307524 0.0 
0.909164 -0.156805 0.0 
0.730799 -0.0594557 0.0 
0.380354 -0.00737109 0.0 
0.286379 -0.0406795 0.0 
0 0 0.0 
0.101338 0.00619655 0.0 
0.209799 -0.0299332 0.0 
0.786517 -0.0292204 0.0 
0.899082 -0.169597 0.0 
0.802169 -0.094544 0.0 
0.75502 -0.0688352 0.0 
0.748729 -0.0219929 0.0 
0.079213 -0.0254173 0.0 
0.920802 -0.103685 0.0 
0.538322 -0.0360141 0.0 
0.154769 -7.15393e-06 0.0 
0.160794 -0.0330896 0.0 
0.754141 -0.0226659 0.0 
0.88641 -0.148319 0.0 
0.936571 -0.0938346 0.0 
0.839389 -0.0442603 0.0 
0.0618465 -0.0211319 0.0 
0 0 0.0 
0.843851 -0.166167 0.0 
0.771901 -0.0261517 0.0 
0.655472 -0.0480792 0.0 
0.299101 -0.00803389 0.0 
0.860504 -0.186188 0.0 
0.438715 -0.00833558 0.0 
0.506337 -0.0169589 0.0 
0.0193431 -0.00372608 0.0 
0.809734 -0.0344522 0.0 
0.172704 -0.047704 0.0 
0.85571 -0.0515495 0.0 
0.684374 -0.077909 0.0 
0.123654 -0.0312625 0.0 
0.717224 -0.0170425 0.0 
0.629026 -0.0036145 0.0 
0 0 0.0 
0.608829 -0.00431983 0.0 
0.449025 -0.0122501 0.0 
0.87006 -0.0673709 0.0 
0.651708 -0.0728191 0.0 
0.306363 0.0149651 0.0 
0.229822 0.0105976 0.0 
0.428722 0.0132235 0.0 
0.346185 0.0103993 0.0 
0.0588565 0.00647393 0.0 
0 0 0.0 
0.184248 0.0102891 0.0 
0.369087 -0.0202225 0.0 
0.178282 -0.0323373 0.0 
0.92184 -0.122555 0.0 
0.548606 0.00545472 0.0 
0.534703 0.00627429 0.0 
0.12602 0.0113573 0.0 
0.0700467 -0.0139259 0.0 
0.758926 -0.0250345 0.0 
0.728414 -0.072892 0.0 
0.93715 -0.120247 0.0 
0.5815 -0.0430731 0.0 
0 0 0.0 
0.412208 -0.058719 0.0 
0.791866 -0.0314489 0.0 
0.810952 -0.153617 0.0 
0.65665 -0.0244661 0.0 
0.0855609 0.00321219 0.0 
0 0 0.0 
0.73529 -0.10291 0.0 
0.465895 -0.0201623 0.0 
0.721394 -0.0825606 0.0 
0.756732 -0.074128 0.0 
0.0783871 -0.0014537 0.0 
0.115556 0.0112622 0.0 
0.0381171 -0.00700638 0.0 
0.861743 -0.052288 0.0 
0.426245 -0.00920477 0.0 
0.860148 -0.0591933 0.0 
0.307397 -0.0102734 0.0 
0.380971 -0.014695 0.0 
0.769687 -0.0297469 0.0 
0.0447171 0.00101969 0.0 
0.860342 -0.0560137 0.0 
0.867616 -0.060863 0.0 
0.209005 0.000179273 0.0 
0 0 0.0 
0.234328 0.00208938 0.0 
0.698651 -0.077675 0.0 
0 0 0.0 
0.0219597 -0.00448331 0.0 
0.22904 0.00480207 0.0 
0 0 0.0 
0 0 0.0 
0.712145 -0.0764397 0.0 
0.352692 -0.0144072 0.0 
0.158283 0.00724611 0.0 
0.522272 -0.0223449 0.0 
0.694298 -0.01979 0.0 
0.0621957 0.00111423 0.0 
0.861466 -0.0302456 0.0 
0.0655528 -0.0171765 0.0 
0.824609 -0.044788 0.0 
0.15378 0.00438956 0.0 
0.0843445 -0.0124471 0.0 
0.862916 -0.057284 0.0 
0.681955 -0.010938 0.0 
0.839068 -0.0467413 0.0 
0 0 0.0 
0.424125 -0.0203358 0.0 
0 0 0.0 
0.163741 0.00355433 0.0 
0.452254 -0.00716602 0.0 
0.156152 0.012143 0.0 
0.825231 -0.169594 0.0 
0.786215 -0.0297311 0.0 
0.737963 -0.0243756 0.0 
0.80675 -0.0450924 0.0 
0.553081 -0.0643991 0.0 
0.544921 -0.00657589 0.0 
0.193618 -0.000345919 0.0 
0 0 0.0 
0.0980356 -0.0272236 0.0 
0.256018 -0.00705016 0.0 
0 0 0.0 
0.0652856 -0.0143468 0.0 
0 0 0.0 
0.862391 -0.0569761 0.0 
0.35029 -0.0525377 0.0 
0.267805 0.010001 0.0 
0 0 0.0 
0.0493249 0.000781959 0.0 
0.775138 -0.0743056 0.0 
0.808373 -0.0856568 0.0 
0.188566 -0.00388886 0.0 
0.853704 -0.065663 0.0 
0.773488 -0.0640623 0.0 
0.765369 -0.0471755 0.0 
0.098091 -0.017742 0.0 
0.831092 -0.0878214 0.0 
0.787734 -0.0647201 0.0 
0.03519 -0.013278 0.0 
0.775463 -0.104538 0.0 
0.108146 0.000335857 0.0 
0.186552 -0.00214317 0.0 
0.296399 -0.00256672 0.0 
0.148175 -0.0450281 0.0 
0.863234 -0.0596482 0.0 
0.660159 -0.0211038 0.0 
0.231303 -0.0274019 0.0 
0.0428761 -0.0172852 0.0 
0 0 0.0 
0.822731 -0.0492272 0.0 
0.709207 -0.0159952 0.0 
0.0449527 0.00285379 0.0 
0.539737 -0.0691914 0.0 
0.76909 -0.0679168 0.0 
0.587907 -0.0115383 0.0 
0.752716 -0.0631909 0.0 
0.0529759 0.00201916 0.0 
0.885897 -0.17721 0.0 
0.833347 -0.0447026 0.0 
1.65388e-12 -2.42047e-14 0.0 
0.785253 -0.0686279 0.0 
0.751705 -0.0826064 0.0 
0.768444 -0.0498466 0.0 
0.24689 0.00799681 0.0 
0.318966 0.00883401 0.0 
0.0255754 -0.000223406 0.0 
0.901951 -0.143714 0.0 
0.387749 0.0138106 0.0 
0.827455 -0.0992522 0.0 
0.551108 -0.0200543 0.0 
0.482714 -0.0282573 0.0 
0.116791 -0.00400333 0.0 
0.834474 -0.0604349 0.0 
0.78747 -0.0780137 0.0 
0.843254 -0.0436363 0.0 
0.285656 -0.0154316 0.0 
0.74656 -0.0763951 0.0 
0.892094 -0.106045 0.0 
0.800838 -0.0776913 0.0 
0.703983 -0.0334567 0.0 
0.761614 -0.0248188 0.0 
0.638056 -0.0329541 0.0 
0.672538 -0.0306765 0.0 
0.0658231 -0.0262375 0.0 
0.541792 -0.0273097 0.0 
0.800051 -0.033062 0.0 
0.209173 -0.0188856 0.0 
0.861 -0.0626162 0.0 
0.777112 -0.0474936 0.0 
0.435719 -0.00169678 0.0 
0.780352 -0.0836336 0.0 
0.136848 -0.000656364 0.0 
0.809754 -0.0481683 0.0 
0.651645 -0.0113717 0.0 
0.0971428 -0.0340251 0.0 
0.804156 -0.0691309 0.0 
0.819397 -0.0585739 0.0 
0.473621 0.0112067 0.0 
0.792088 -0.0731706 0.0 
0.811275 -0.0774921 0.0 
0.820888 -0.0828462 0.0 
0.817346 -0.0737517 0.0 
0.766231 -0.0810788 0.0 
0.865094 -0.0546683 0.0 
0.508937 -0.00544099 0.0 
0.18492 -0.0056021 0.0 
0.850823 -0.0618042 0.0 
0.161465 0.00269823 0.0 
0.865888 -0.05436 0.0 
0.109863 -0.000501789 0.0 
0.835989 -0.11086 0.0 
0.867781 -0.0573982 0.0 
0 0 0.0 
0.857518 -0.0467816 0.0 
0.870252 -0.0296144 0.0 
0.616998 -0.032344 0.0 
0 0 0.0 
0.853794 -0.0491737 0.0 
0.762983 -0.0253948 0.0 
0.787395 -0.121034 0.0 
0.863399 -0.0557175 0.0 
0.640761 -0.00544857 0.0 
0.814572 -0.0957812 0.0 
0.844912 -0.0467523 0.0 
0.868438 -0.0523939 0.0 
0.051528 -0.0132361 0.0 
0.0427348 -0.00948762 0.0 
0.187032 -0.00485397 0.0 
0.26011 -0.0116796 0.0 
0.862217 -0.0517631 0.0 
0.787949 -0.0315496 0.0 
0 0 0.0 
0.842476 -0.0441635 0.0 
0.115941 -0.0028915 0.0 
0.283537 0.00461837 0.0 
0.0148395 -0.000292809 0.0 
0.722946 -0.0516235 0.0 
0.478627 -0.0164178 0.0 
0 0 0.0 
0.168947 -0.0136742 0.0 
0.135084 -0.0096537 0.0 
0 0 0.0 
0.0425056 0.000326095 0.0 
0.0312547 -0.00108378 0.0 
0 0 0.0 
0.867556 -0.0380665 0.0 
0.670396 -0.0240714 0.0 
0.216657 -0.00186016 0.0 
0.622797 -0.022393 0.0 
0.101462 -0.0201327 0.0 
0.638115 -0.0136868 0.0 
0.664663 -0.0139264 0.0 
0 0 0.0 
0.421183 0.00594405 0.0 
0.0611195 -0.0227737 0.0 
0.474853 0.000533142 0.0 
0.518771 -0.0575898 0.0 
0.859635 -0.0389771 0.0 
0.0172416 -0.000179552 0.0 
0.136041 -0.0112749 0.0 
0.162212 0.00786055 0.0 
0.680363 -0.0669733 0.0 
0.845233 -0.0613882 0.0 
0.864686 -0.0557533 0.0 
0.609702 -0.00268424 0.0 
0.635116 -0.0565753 0.0 
0.855626 -0.0493487 0.0 
0.849844 -0.151057 0.0 
0.82579 -0.153976 0.0 
0.869592 -0.0636889 0.0 
0.8463 -0.185115 0.0 
0 0 0.0 
0.525456 -0.0475819 0.0 
0.323681 -0.0214856 0.0 
0.109649 0.00247126 0.0 
0.859996 -0.0531047 0.0 
0.0976362 -0.00657692 0.0 
0.0567538 -0.00275506 0.0 
0.0977957 0.00280634 0.0 
0.860784 -0.162757 0.0 
0.211605 -0.0218579 0.0 
0.249117 -0.0216695 0.0 
0.847677 -0.049476 0.0 
0.171976 -0.0160427 0.0 
0.700319 -0.0433169 0.0 
0.226101 -0.0152225 0.0 
0.846767 -0.0456202 0.0 
0.854473 -0.172534 0.0 
0.694699 -0.0658554 0.0 
0.860423 -0.141754 0.0 
0.0239547 0.00026665 0.0 
0 0 0.0 
0.105921 -0.00900074 0.0 
0.278287 -0.0221401 0.0 
0.865512 -0.0577132 0.0 
0.864231 -0.0565115 0.0 
0.861185 -0.0523845 0.0 
0.462688 -0.0512275 0.0 
0.0288371 -0.000676455 0.0 
0.862953 -0.0545761 0.0 
0.593942 -0.0177908 0.0 
0.832248 -0.0546037 0.0 
0.634897 -0.0662359 0.0 
0.795121 -0.0854617 0.0 
0.256607 -0.0260879 0.0 
0.288174 0.00677124 0.0 
0.719211 -0.0443052 0.0 
0.710293 -0.0364119 0.0 
0.416965 -0.0409334 0.0 
0 0 0.0 
0.532865 -0.00293264 0.0 
0.385221 -0.0430002 0.0 
0.0189764 -0.000592974 0.0 
0.869078 -0.0605612 0.0 
0.199959 -0.0156435 0.0 
0.615742 -0.0671561 0.0 
0.82692 -0.0471151 0.0 
0.829634 -0.140745 0.0 
0.338211 0.0122287 0.0 
0.873369 -0.120873 0.0 
0.536659 -0.039702 0.0 
0.685638 -0.0606757 0.0 
0.707586 -0.0841518 0.0 
0.798452 -0.147093 0.0 
0.878686 -0.0236467 0.0 
0.835857 -0.0512465 0.0 
0.855961 -0.054089 0.0 
0.633619 -0.0815749 0.0 
0 0 0.0 
0.651118 -0.0175582 0.0 
0.668129 -0.0614523 0.0 
0.395833 -0.00248184 0.0 
0.0622423 -0.00211463 0.0 
0.0997909 -0.00427121 0.0 
0.0563785 -0.00548132 0.0 
0.67124 -0.0724142 0.0 
0.0270513 0.000764392 0.0 
0.0706718 -0.00552523 0.0 
0.711928 -0.0723333 0.0 
0.886919 -0.164539 0.0 
0.138918 -0.00805264 0.0 
0.746771 -0.0425845 0.0 
0.864718 -0.0536205 0.0 
0.863924 -0.0554428 0.0 
0.772275 -0.0533505 0.0 
0.71241 -0.067466 0.0 
0.127778 -0.00145041 0.0 
0.550355 -0.0338198 0.0 
0.54216 -0.0216667 0.0 
2.09338e-20 -3.06368e-22 0.0 
0.625512 -0.0435014 0.0 
0 0 0.0 
0.0431369 -0.00346533 0.0 
0.0615796 -0.0085513 0.0 
0.186544 -0.0123216 0.0 
0.865498 -0.0542979 0.0 
0.827723 -0.0392923 0.0 
0.451283 0.00552338 0.0 
7.86137e-12 -1.15052e-13 0.0 
0.813602 -0.0433611 0.0 
0.622044 -0.0461687 0.0 
0.61504 -0.0574946 0.0 
0.362956 -0.0305527 0.0 
0.0412855 0.00131869 0.0 
0.157115 0.00639343 0.0 
0.43799 0.00153645 0.0 
0.689896 -0.0720519 0.0 
0.0222238 -0.000995276 0.0 
0.360302 -0.0167892 0.0 
0.230731 -0.017659 0.0 
0.80625 -0.0341502 0.0 
0.276788 -0.0192632 0.0 
0.0316771 -0.00297455 0.0 
0.604629 -0.0595784 0.0 
0.937689 -0.0815225 0.0 
0.815715 -0.0455808 0.0 
0.773607 -0.122209 0.0 
0.130065 -0.0148624 0.0 
0.456164 -0.0710584 0.0 
0.815859 -0.137203 0.0 
0.829601 -0.0651501 0.0 
0.756206 -0.0524481 0.0 
0.866529 -0.0570116 0.0 
0.174178 -0.01887 0.0 
0.853706 -0.0529183 0.0 
0.776789 -0.0291793 0.0 
0.864729 -0.0623907 0.0 
0.869111 -0.0660465 0.0 
0.453161 -0.0300815 0.0 
0.629132 -0.0169272 0.0 
0 0 0.0 
0.0462546 0.00244819 0.0 
0.490151 -0.0390596 0.0 
0.899018 -0.015886 0.0 
0.299843 -0.0519924 0.0 
0.827835 -0.0389743 0.0 
0.809764 -0.0509192 0.0 
0.475728 0.00603391 0.0 
0.359218 -0.0220826 0.0 
0.82626 -0.038816 0.0 
0.211284 -0.0120631 0.0 
0.827739 -0.0442304 0.0 
0.824021 -0.0391661 0.0 
0.632266 -0.00834243 0.0 
0.838436 -0.0478649 0.0 
0.508026 -0.0127605 0.0 
0.408221 -0.0304677 0.0 
0.582628 -0.00625988 0.0 
0.210842 0.0155889 0.0 
0.866507 -0.0650321 0.0 
0.263826 0.0132994 0.0 
0.455468 -0.040417 0.0 
0.602561 -0.0683962 0.0 
0.818393 -0.0380613 0.0 
0.498732 -0.060104 0.0 
0.794497 -0.0510906 0.0 
0.779776 -0.0326351 0.0 
0.858318 -0.0602488 0.0 
0.136339 -0.0238379 0.0 
0.109645 0.00854104 0.0 
0.850214 -0.056364 0.0 
0.0434473 -0.0189995 0.0 
0.486208 0.00873389 0.0 
0.783686 -0.0508905 0.0 
0.649922 -0.0622009 0.0 
0.73626 -0.0695553 0.0 
0.573151 -0.0178375 0.0 
0.733973 -0.0637857 0.0 
0.0408464 -0.00142706 0.0 
0.527121 -0.0122624 0.0 
0.0630371 -0.00384098 0.0 
0.0394846 -0.00187229 0.0 
0 0 0.0 
0.468163 -0.00123308 0.0 
0.181402 0.0112677 0.0 
0.492187 -0.0137568 0.0 
0.735974 -0.0386742 0.0 
0.859762 -0.056088 0.0 
0.57705 -0.0530493 0.0 
0.729678 -0.0197118 0.0 
0.820341 -0.0411071 0.0 
0.364824 0.00497904 0.0 
0.819437 -0.10983 0.0 
0.0705236 -0.0123381 0.0 
0.807185 -0.105679 0.0 
0.0843943 -0.00261163 0.0 
0.463442 0.0109567 0.0 
0.84963 -0.131616 0.0 
0.790913 -0.0582332 0.0 
0.766642 -0.0897933 0.0 
0.656075 -0.0831787 0.0 
0.655019 -0.051821 0.0 
0.135501 -0.0132581 0.0 
0.0316928 -0.000475047 0.0 
0.618945 -0.0502248 0.0 
0.631067 -0.0742298 0.0 
0.788235 -0.0543568 0.0 
0 0 0.0 
0.926428 -0.0892347 0.0 
0.867215 -0.0569405 0.0 
0.343992 0.00899812 0.0 
0.82294 -0.0555793 0.0 
0.862107 -0.12319 0.0 
0.434105 -0.0539332 0.0 
0.024124 -0.00540638 0.0 
0.0403916 0.000137855 0.0 
0.181114 -0.00815978 0.0 
0.0171782 -0.000359847 0.0 
0.879435 -0.133657 0.0 
0.842055 -0.0562183 0.0 
0.74092 -0.0296254 0.0 
0.0519927 -0.0083825 0.0 
0.0793084 -0.00342615 0.0 
0.806857 -0.0340949 0.0 
0.898924 -0.115515 0.0 
0.836712 -0.0426031 0.0 
0.28682 0.0158607 0.0 
0.681832 -0.0198019 0.0 
0.834951 -0.128118 0.0 
0.0207942 -0.000347027 0.0 
0.853126 -0.0471448 0.0 
0.101235 -0.0248138 0.0 
0.107678 0.00727059 0.0 
0.0294155 -0.000323274 0.0 
0.0918967 -0.0114065 0.0 
0.603829 -0.0092903 0.0 
0.31363 0.000403883 0.0 
0 0 0.0 
0.844969 -0.0522707 0.0 
0.157111 -0.0108265 0.0 
0.305373 0.0104849 0.0 
0.816443 -0.0628609 0.0 
0.527938 0.00420218 0.0 
0.577868 -0.0461995 0.0 
0 0 0.0 
0.712341 -0.0541083 0.0 
0.742841 -0.0262492 0.0 
0.150514 0.00580356 0.0 
0.018366 -0.000409255 0.0 
0.0238856 -0.000571665 0.0 
0 0 0.0 
0.0182168 -0.000294457 0.0 
0 0 0.0 
0.0673735 -0.00153235 0.0 
0.115967 -0.00686832 0.0 
0.0473324 -0.00106247 0.0 
0.322613 -0.0309468 0.0 
0.0422163 -0.00268865 0.0 
0.0984876 -0.0326889 0.0 
0.805191 -0.0585837 0.0 
0.697942 -0.045545 0.0 
0.0447663 -0.00136948 0.0 
0.766175 -0.0312349 0.0 
0 0 0.0 
0.850609 -0.0464053 0.0 
0.855491 -0.0590018 0.0 
0.755472 -0.0397741 0.0 
0.78675 -0.0931728 0.0 
0.830592 -0.0422636 0.0 
0.728313 -0.0356793 0.0 
0.154555 -0.0229894 0.0 
0.0925567 -0.00931858 0.0 
0.62751 -0.0382303 0.0 
0.712143 -0.062936 0.0 
0.823955 -0.12495 0.0 
0.0179166 -0.00125567 0.0 
0 0 0.0 
0 0 0.0 
0 0 0.0 
0.861761 -0.0512193 0.0 
0 0 0.0 
0.0267048 -0.000481525 0.0 
0.779961 -0.0376961 0.0 
0.0580202 0.000542207 0.0 
2.30647e-11 -4.83157e-13 0.0 
0.03998 -0.00454993 0.0 
0.0443151 -0.00888498 0.0 
0.16234 -0.00771209 0.0 
0.773494 -0.0391852 0.0 
0 0 0.0 
0.801344 -0.0546509 0.0 
0 0 0.0 
0.655975 -0.0560328 0.0 
0 0 0.0 
0.362627 -0.046957 0.0 
0.0140193 -0.000205173 0.0 
0.770128 -0.0402337 0.0 
0.686083 -0.0572291 0.0 
0 0 0.0 
0.743221 -0.0341238 0.0 
0.786919 -0.134076 0.0 
0.0180145 -0.00295764 0.0 
0.752738 -0.0328629 0.0 
0.0357828 -0.000850252 0.0 
0.731381 -0.0306531 0.0 
0 0 0.0 
0.037857 -0.005828 0.0 
0.917381 -0.141492 0.0 
0.0720849 -0.00332884 0.0 
0.791485 -0.0444028 0.0 
0.0187704 -0.00205868 0.0 
0.737415 -0.0352607 0.0 
0.050419 -0.00126648 0.0 
0.0642688 -0.00754987 0.0 
0.0159481 -0.00149877 0.0 
0.122703 -0.016547 0.0 
0.326037 0.0164812 0.0 
0 0 0.0 
0.209298 -0.00900727 0.0 
0.745684 -0.0448922 0.0 
0.864776 -0.05752 0.0 
0.326496 0.00117888 0.0 
0 0 0.0 
0 0 0.0 
0 0 0.0 
0.0472181 0.00320812 0.0 
0.0248545 0.000104517 0.0 
0.0418643 -0.00557526 0.0 
0.129025 -0.00563058 0.0 
0.0997726 -0.00407313 0.0 
0.756959 -0.0265797 0.0 
0.311969 -0.00746654 0.0 
0.382251 0.00851581 0.0 
0.76347 -0.0360122 0.0 
0.315259 -0.0164424 0.0 
0.834826 -0.154979 0.0 
0.596845 -0.0516853 0.0 
0.801346 -0.0420585 0.0 
0.711364 -0.0585399 0.0 
0.791358 -0.0303012 0.0 
0.0187383 -0.00111166 0.0 
0.911904 -0.110643 0.0 
0.75343 -0.0964948 0.0 
0.808634 -0.0534937 0.0 
0.854629 -0.0480613 0.0 
0.723569 -0.0425747 0.0 
0.744752 -0.020949 0.0 
0.774348 -0.0570525 0.0 
0 0 0.0 
0 0 0.0 
0.0197035 -0.00249179 0.0 
0.759202 -0.0600054 0.0 
0 0 0.0 
0.729496 -0.0910164 0.0 
0.302665 -0.000993414 0.0 
0.247708 -0.0138153 0.0 
0 0 0.0 
0 0 0.0 
0 0 0.0 
0 0 0.0 
0.835608 -0.16797 0.0 
0.820351 -0.0519366 0.0 
0.0218515 -0.00320692 0.0 
0.787101 -0.0322102 0.0 
0.232108 -0.00688177 0.0 
0.794481 -0.0436813 0.0 
0.711526 -0.0388656 0.0 
0 0 0.0 
0.842539 -0.136994 0.0 
0.150524 -0.00434496 0.0 
0.0301611 -0.00757008 0.0 
0.0425354 -0.0182363 0.0 
0 0 0.0 
0.690896 -0.0850364 0.0 
0 0 0.0 
0.720883 -0.0188803 0.0 
0.743446 -0.086961 0.0 
0.0492359 -0.0147685 0.0 
0.0309073 -0.00865284 0.0 
0 0 0.0 
0.0561992 -0.0201053 0.0 
0.766502 -0.0435934 0.0 
0.073263 -0.0294767 0.0 
0.225141 0.0138301 0.0 
0.208632 -0.00785567 0.0 
1.19574e-11 -1.93279e-13 0.0 
0 0 0.0 
0.802484 -0.0372073 0.0 
0.839308 -0.0427495 0.0 
0 0 0.0 
0 0 0.0 
0.619458 -0.00606793 0.0 
0.89334 -0.131563 0.0 
0.56686 -0.0609127 0.0 
0.789496 -0.0411249 0.0 
0 0 0.0 
0 0 0.0 
0.855943 -0.0576714 0.0 
0.137839 -0.00694718 0.0 
0.17321 -0.0011064 0.0 
0.832682 -0.0708096 0.0 
0.889004 -0.0200666 0.0 
0.810641 -0.0405973 0.0 
0 0 0.0 
0.929427 -0.0725809 0.0 
0.795216 -0.101894 0.0 
0.0488041 0.00367831 0.0 
0 0 0.0 
0.0245985 -0.0076279 0.0 
0.595871 -0.0234932 0.0 
0.175296 -0.00970522 0.0 
0.307179 -0.0353387 0.0 
0 0 0.0 
0.0274768 -0.00894283 0.0 
0.0811022 -0.021831 0.0 
0.0481501 0.00167296 0.0 
0.768591 -0.0342499 0.0 
0.633658 -0.0628999 0.0 
0.888865 -0.0314995 0.0 
0 0 0.0 
0.56316 -0.0557289 0.0 
0.024578 -0.00727106 0.0 
0.729623 -0.0485113 0.0 
0.597791 -0.061955 0.0 
0.314518 0.0116442 0.0 
0.865542 -0.0595013 0.0 
0.508573 -0.0513878 0.0 
0.8391 -0.146111 0.0 
0.0976862 -0.00129814 0.0 
0.661921 -0.0674882 0.0 
0.0914262 -0.000759775 0.0 
0 0 0.0 
0.87751 -0.0359367 0.0 
0.178022 0.0135013 0.0 
0 0 0.0 
0.667236 -0.0800374 0.0 
0 0 0.0 
0.285247 -0.00481298 0.0 
0 0 0.0 
0.0366257 -0.0152691 0.0 
0.418425 -0.0229318 0.0 
0.872556 -0.149025 0.0 
0.54334 -0.0754612 0.0 
0.37983 0.0147269 0.0 
0 0 0.0 
0.800734 -0.131808 0.0 
0.604394 -0.0388531 0.0 
0.725825 -0.0177206 0.0 
0.872929 -0.0457423 0.0 
0.908789 -0.0220219 0.0 
0.478698 -0.00713717 0.0 
0.913889 -0.0942246 0.0 
0 0 0.0 
0.0297055 -0.000227184 0.0 
0.905574 -0.0876622 0.0 
0 0 0.0 
0.886485 -0.0790346 0.0 
0.874724 -0.0773755 0.0 
0.0666529 0.00197445 0.0 
0.0806818 -0.0193565 0.0 
0.223951 0.00109229 0.0 
0.020284 -0.000130293 0.0 
0.795169 -0.0365985 0.0 
0.898015 -0.0243095 0.0 
0 0 0.0 
0.601149 -0.00664607 0.0 
0.895806 -0.156004 0.0 
0 0 0.0 
0 0 0.0 
0.0987038 0.00565843 0.0 
0.0384973 -0.0138492 0.0 
0 0 0.0 
0.0547284 -0.000208178 0.0 
0.0255801 0.000118807 0.0 
0.729279 -0.0255715 0.0 
0.497911 -0.00666915 0.0 
0.918303 -0.0266816 0.0 
0.511953 0.00620326 0.0 
0.906341 -0.0479623 0.0 
0.817589 -0.0680074 0.0 
0.142809 -0.0032352 0.0 
0.868061 -0.0600506 0.0 
0.144065 -0.00486296 0.0 
0.620293 -0.0240983 0.0 
0.884274 -0.0911022 0.0 
0.0816434 0.00395194 0.0 
0.330502 -0.00580025 0.0 
0.797462 -0.0472138 0.0 
0 0 0.0 
0.930111 -0.0508691 0.0 
0.882013 -0.103586 0.0 
0.0304043 -0.0139289 0.0 
0.698596 -0.0486114 0.0 
0.0570801 -0.0137564 0.0 
0.022921 4.02459e-05 0.0 
0.731738 -0.078619 0.0 
0.138503 -0.0023393 0.0 
0.902564 -0.100808 0.0 
0.690262 -0.0390927 0.0 
0.024115 -0.00652188 0.0 
0 0 0.0 
0.441987 0.0089614 0.0 
0.507919 -0.0269732 0.0 
0.893528 -0.0916688 0.0 
0.934035 -0.0595831 0.0 
0.868124 -0.0636049 0.0 
0.795922 -0.11228 0.0 
0.850858 -0.104023 0.0 
0.0958285 -0.0024488 0.0 
0 0 0.0 
0.161414 -0.00191008 0.0 
0.501398 0.00333944 0.0 
0.663115 -0.0333776 0.0 
0.57503 -0.00775726 0.0 
0.245257 0.00332474 0.0 
0.171452 0.0051897 0.0 
0.867455 -0.108228 0.0 
0.774699 -0.0603725 0.0 
0.584357 -0.0273278 0.0 
0.810061 -0.120023 0.0 
0.910588 -0.0620969 0.0 
0.904889 -0.032612 0.0 
0.376285 -0.0121751 0.0 
0.0530052 0.00481407 0.0 
0.139627 -0.0321633 0.0 
0.169384 -0.0213449 0.0 
0.849258 -0.0923601 0.0 
0.841916 -0.102558 0.0 
0.21848 -0.041773 0.0 
0.699987 -0.0257665 0.0 
0 0 0.0 
0.0284162 -8.65524e-05 0.0 
0.234197 -0.0386879 0.0 
0.919447 -0.0359036 0.0 
0.685581 -0.0492195 0.0 
0.70362 -0.0274968 0.0 
0.0348979 -0.000111524 0.0 
0.752575 -0.0550696 0.0 
0.879909 -0.0642315 0.0 
0.841828 -0.124336 0.0 
0.685356 -0.0532359 0.0 
0.100548 -0.00171003 0.0 
0.849727 -0.0767521 0.0 
0.0573042 -0.000622166 0.0 
0.658335 -0.0382744 0.0 
0 0 0.0 
0.861187 -0.065014 0.0 
0.305662 -0.0138429 0.0 
0.843287 -0.0871108 0.0 
0.886778 -0.0467525 0.0 
0.895051 -0.0625118 0.0 
0.74722 -0.047565 0.0 
0.358665 -0.00911543 0.0 
0.85614 -0.112983 0.0 
0.825153 -0.0732358 0.0 
0.859752 -0.0977938 0.0 
0.0526339 -5.60607e-05 0.0 
0.856152 -0.0527346 0.0 
0.0646668 -0.0197371 0.0 
0.864179 -0.0836956 0.0 
0 0 0.0 
0.585935 -0.0700858 0.0 
0.55172 -0.046222 0.0 
0.0974856 0.00870211 0.0 