<VTKFile type="UnstructuredGrid" version="0.1" byte_order="LittleEndian">
  <UnstructuredGrid>
    <Piece NumberOfPoints="16459" NumberOfCells="32431">
      <Points>
        <DataArray type = "Float64" NumberOfComponents="3" format="ascii">
0.99601 0.988272 0.0 
1.01172 0.997044 0.0 
0.915068 0.968611 0.0 
1.01125 0.996586 0.0 
1.01052 0.996235 0.0 
1.00356 0.990096 0.0 
1.00833 0.993988 0.0 
1.01237 1.00007 0.0 
1.00935 0.994601 0.0 
1.00757 0.993729 0.0 
1.00574 0.99206 0.0 
1.00265 0.989192 0.0 
0.928773 0.97412 0.0 
1.01129 0.995035 0.0 
1.0077 0.997715 0.0 
1.00479 0.99226 0.0 
0.997025 0.989799 0.0 
0.993072 1.00428 0.0 
1.01136 0.998279 0.0 
1.01621 0.99654 0.0 
1.02166 0.996419 0.0 
0.903237 0.980558 0.0 
0.95809 0.983924 0.0 
1.01006 1.00035 0.0 
0.945391 0.981152 0.0 
1.00849 0.995776 0.0 
1.00779 0.994913 0.0 
1.01045 0.997072 0.0 
0.936343 0.983759 0.0 
0.99593 0.990421 0.0 
1.01055 0.999667 0.0 
1.0107 0.999043 0.0 
1.01 0.999215 0.0 
1.01173 0.997764 0.0 
1.00765 0.994346 0.0 
1.01109 0.997575 0.0 
1.01032 0.997878 0.0 
1.00909 0.997075 0.0 
1.01081 0.998404 0.0 
1.00989 0.995982 0.0 
1.00818 0.99816 0.0 
1.00821 0.99516 0.0 
1.00803 0.999399 0.0 
1.00919 0.996258 0.0 
1.00834 0.997426 0.0 
1.00762 0.999812 0.0 
1.00804 0.998859 0.0 
1.00787 0.996289 0.0 
1.00944 0.995393 0.0 
0.958938 0.978193 0.0 
0.930513 0.929808 0.0 
1.34083 0.949668 0.0 
0.925958 0.987501 0.0 
1.00878 0.995045 0.0 
1.00981 1.0003 0.0 
1.00031 0.988293 0.0 
1.00973 0.997474 0.0 
1.01191 0.99853 0.0 
0.913868 0.992065 0.0 
1.00933 1.00019 0.0 
0.998413 0.99121 0.0 
0.989953 0.990877 0.0 
0.96312 0.98772 0.0 
0.972244 0.989363 0.0 
0.989826 0.993282 0.0 
0.992689 0.991992 0.0 
1.00028 0.996699 0.0 
0.994087 0.990153 0.0 
0.988764 0.992118 0.0 
0.996228 0.991203 0.0 
0.998993 0.996545 0.0 
1.01015 0.998585 0.0 
1.01104 0.99981 0.0 
0.999492 0.990487 0.0 
0.997435 0.986696 0.0 
0.980147 0.992252 0.0 
1.01153 1.00064 0.0 
0.952049 0.986125 0.0 
1.01126 0.999124 0.0 
0.967731 0.991648 0.0 
0.996781 0.998398 0.0 
1.00015 1.00051 0.0 
0.989419 1.00252 0.0 
0.999436 0.999323 0.0 
1.00981 0.996683 0.0 
1.02997 1.0009 0.0 
0.998653 1.00324 0.0 
1.01211 0.999308 0.0 
0.952587 0.979494 0.0 
0.996086 0.998496 0.0 
0.96364 0.982401 0.0 
1.00988 0.999742 0.0 
1.00151 0.988592 0.0 
1.01157 0.999949 0.0 
0.995412 1.00425 0.0 
0.99695 0.99503 0.0 
1.00675 0.993426 0.0 
0.992665 1.00033 0.0 
1.00843 0.996639 0.0 
1.00901 0.997961 0.0 
0.982062 1.00121 0.0 
0.997273 0.997955 0.0 
1.00134 0.995493 0.0 
1.01442 0.994819 0.0 
0.999931 0.99418 0.0 
0.997588 0.995108 0.0 
0.998811 1.00248 0.0 
0.987221 0.994599 0.0 
0.929414 0.813288 0.0 
1.02327 1.00089 0.0 
1.00003 1.00378 0.0 
1.02463 0.997957 0.0 
1.01202 1.00074 0.0 
0.98841 1.00214 0.0 
0.991445 1.00467 0.0 
1.00393 0.999148 0.0 
0.891429 0.877911 0.0 
1.02133 0.999804 0.0 
1.00935 0.998818 0.0 
1.00081 1.00157 0.0 
1.02034 0.992894 0.0 
1.0057 0.997744 0.0 
0.999609 1.00346 0.0 
0.99019 1.00198 0.0 
0.91501 0.876131 0.0 
1.00047 0.999237 0.0 
0.99551 1.00358 0.0 
0.992322 1.00743 0.0 
0.958021 1.0121 0.0 
1.00849 1.00001 0.0 
1.00357 0.993693 0.0 
0.998446 1.00091 0.0 
0.991973 1.00334 0.0 
0.993822 1.00787 0.0 
0.915725 0.936841 0.0 
0.903536 0.928259 0.0 
1.00725 1.00707 0.0 
1.0064 0.999558 0.0 
0.992555 0.989683 0.0 
1.00539 0.996296 0.0 
0.938842 0.951923 0.0 
1.00971 0.998155 0.0 
1.00647 0.998213 0.0 
1.00612 0.998861 0.0 
1.00615 0.999511 0.0 
1.00554 0.996976 0.0 
1.01989 1.00065 0.0 
0.994434 1.00111 0.0 
1.00929 0.999569 0.0 
1.00342 1.00964 0.0 
1.00159 1.00839 0.0 
1.00083 1.0114 0.0 
0.99298 0.998207 0.0 
0.994382 0.997857 0.0 
0.994594 0.9971 0.0 
1.00095 0.999089 0.0 
1.00329 0.991266 0.0 
1.38514 0.949148 0.0 
0.98803 1.00832 0.0 
0.86798 0.898081 0.0 
1.00869 0.999431 0.0 
0.985462 0.989984 0.0 
0.999931 1.00947 0.0 
1.0085 0.994465 0.0 
0.927894 0.944936 0.0 
0.996532 0.997783 0.0 
0.998387 0.99619 0.0 
0.994294 0.998717 0.0 
0.919176 0.918859 0.0 
0.999697 1.00586 0.0 
1.00199 1.00285 0.0 
0.998216 1.0045 0.0 
1.00093 0.9968 0.0 
1.00867 0.998616 0.0 
1.00448 1.00581 0.0 
1.01079 1.0005 0.0 
0.93408 0.916087 0.0 
0.987055 0.99094 0.0 
0.984456 0.999313 0.0 
0.99489 0.998131 0.0 
1.00142 1.00715 0.0 
1.00587 1.00689 0.0 
1.00268 0.998377 0.0 
1.00205 1.01013 0.0 
0.999061 0.99874 0.0 
0.94074 0.938379 0.0 
1.00226 0.998045 0.0 
1.00163 1.0025 0.0 
0.900921 0.905526 0.0 
1.00628 0.997398 0.0 
0.949992 0.94605 0.0 
0.989697 1.00058 0.0 
1.00524 1.00559 0.0 
0.95372 0.967393 0.0 
1.00247 1.00705 0.0 
1.01619 0.997153 0.0 
1.00009 0.999549 0.0 
0.996224 0.993759 0.0 
0.986719 0.98608 0.0 
1.00711 0.994971 0.0 
0.997296 0.991058 0.0 
0.903613 0.849168 0.0 
0.995177 0.99743 0.0 
0.997939 1.00832 0.0 
1.01616 0.998692 0.0 
0.948954 0.958492 0.0 
0.988741 1.00308 0.0 
1.00153 0.997866 0.0 
1.01886 0.998132 0.0 
1.02296 0.998037 0.0 
0.993811 0.991551 0.0 
0.991038 1.00228 0.0 
1.01421 0.99218 0.0 
0.997364 0.997257 0.0 
1.01646 0.994457 0.0 
1.00689 0.999657 0.0 
0.988632 1.004 0.0 
0.992205 0.99935 0.0 
1.00026 0.999366 0.0 
1.00165 1.00332 0.0 
0.993734 0.998 0.0 
0.995831 1.00815 0.0 
0.988099 1.00617 0.0 
1.0036 1.00511 0.0 
1.00418 0.999181 0.0 
0.995151 0.991323 0.0 
0.990967 1.00147 0.0 
0.944243 0.924209 0.0 
1.00194 0.999004 0.0 
0.990168 0.994383 0.0 
0.97428 0.980092 0.0 
0.96887 0.981218 0.0 
0.995777 0.986776 0.0 
0.991187 0.987056 0.0 
0.997183 1.00891 0.0 
0.987027 1.00748 0.0 
0.999279 0.989137 0.0 
1.02267 0.998833 0.0 
1.00546 0.995321 0.0 
0.99572 0.996013 0.0 
1.0171 0.99574 0.0 
0.99592 1.00583 0.0 
0.994618 1.00805 0.0 
1.01909 0.994964 0.0 
0.998527 1.00991 0.0 
0.982345 0.984989 0.0 
0.992987 0.999047 0.0 
0.990279 0.99987 0.0 
1.01592 0.999452 0.0 
0.999233 1.0101 0.0 
1.00704 0.997596 0.0 
0.997834 0.996709 0.0 
0.993031 1.00081 0.0 
0.979292 0.98633 0.0 
0.998579 0.998433 0.0 
0.99065 0.995404 0.0 
0.996527 1.00597 0.0 
1.00104 1.0104 0.0 
0.976225 0.984289 0.0 
1.0032 1.00812 0.0 
0.998416 1.00223 0.0 
0.989348 1.00151 0.0 
1.00119 0.999049 0.0 
0.986052 0.998776 0.0 
0.854475 0.946966 0.0 
0.983724 1.00245 0.0 
0.996741 0.997134 0.0 
1.0031 1.00386 0.0 
1.00193 1.00679 0.0 
0.998478 0.997697 0.0 
0.993622 0.998741 0.0 
0.99383 0.985249 0.0 
1.00419 0.994084 0.0 
1.00507 1.00891 0.0 
1.02394 0.997639 0.0 
1.00175 0.989951 0.0 
0.972576 0.993543 0.0 
0.998031 0.998123 0.0 
0.991653 0.984987 0.0 
0.935352 0.995238 0.0 
1.00201 0.992179 0.0 
0.999582 1.00198 0.0 
0.98909 0.986633 0.0 
0.981678 1.00579 0.0 
0.861064 0.918392 0.0 
1.02211 1.00218 0.0 
0.998181 0.998916 0.0 
1.00624 1.00634 0.0 
0.871091 0.979834 0.0 
0.999443 0.993328 0.0 
0.993364 1.00987 0.0 
1.00033 1.00438 0.0 
1.00444 0.994927 0.0 
1.00609 0.996577 0.0 
0.994663 1.00973 0.0 
0.984483 0.987349 0.0 
0.995943 1.00082 0.0 
0.994103 1.00165 0.0 
0.878103 0.959582 0.0 
0.993653 1.01099 0.0 
1.00189 0.991052 0.0 
0.994827 1.00327 0.0 
1.00392 1.00919 0.0 
1.40333 0.949684 0.0 
0.995727 0.984765 0.0 
1.00269 0.99322 0.0 
0.995104 0.989073 0.0 
1.01774 0.996345 0.0 
0.833669 0.890119 0.0 
0.994124 0.994598 0.0 
1.00066 1.00137 0.0 
1.02045 0.999917 0.0 
1.005 0.997304 0.0 
0.829083 0.990304 0.0 
0.79402 0.978675 0.0 
1.0006 1.00556 0.0 
0.988486 1.00514 0.0 
1.00007 0.997565 0.0 
1.00217 1.00303 0.0 
0.997224 0.996492 0.0 
0.986725 0.988714 0.0 
0.995068 0.996622 0.0 
1.00125 1.00585 0.0 
1.00119 1.00768 0.0 
1.02584 0.997787 0.0 
0.994996 0.99984 0.0 
1.0042 0.997315 0.0 
0.993951 0.999603 0.0 
1.00072 1.00715 0.0 
1.00196 1.00757 0.0 
0.994925 1.00526 0.0 
1.00191 0.996645 0.0 
0.992883 0.999766 0.0 
0.748643 0.960398 0.0 
1.00406 1.00466 0.0 
0.823498 0.958525 0.0 
1.00192 1.00372 0.0 
0.999395 1.01093 0.0 
0.99562 1.00946 0.0 
1.00068 1.00897 0.0 
1.00309 0.994985 0.0 
0.997743 0.995907 0.0 
1.00627 0.991096 0.0 
0.996851 0.993759 0.0 
1.01085 0.993591 0.0 
0.994048 1.01041 0.0 
0.996423 1.00763 0.0 
1.01345 0.996613 0.0 
1.00488 0.995623 0.0 
1.00664 1.00663 0.0 
1.02881 0.997127 0.0 
1.02598 0.998697 0.0 
0.99284 1.00554 0.0 
0.993407 1.00869 0.0 
0.996507 0.999647 0.0 
0.997562 0.993718 0.0 
0.991296 0.990143 0.0 
0.990994 1.00062 0.0 
1.0007 0.999149 0.0 
0.999596 0.991397 0.0 
0.993121 0.988397 0.0 
1.0209 0.995957 0.0 
1.00566 0.999419 0.0 
0.990466 0.992338 0.0 
1 0.999782 0.0 
0.996258 1.01034 0.0 
1.00555 1.00839 0.0 
1.00481 0.997944 0.0 
1.01123 0.995742 0.0 
0.996502 1.00943 0.0 
0.995144 1.00682 0.0 
0.995277 1.00766 0.0 
0.983489 0.989431 0.0 
1.03037 1.00286 0.0 
0.991226 0.996189 0.0 
0.995727 0.999266 0.0 
0.923944 1.0002 0.0 
1.0038 1.0079 0.0 
0.997218 0.994423 0.0 
1.00611 0.992942 0.0 
0.99884 0.993684 0.0 
1.00291 1.0037 0.0 
1.00397 0.998548 0.0 
0.997215 1.00008 0.0 
0.995317 1.01038 0.0 
0.991815 1.0068 0.0 
1.02087 1.00063 0.0 
0.985643 0.991996 0.0 
0.999573 0.996891 0.0 
1.00245 0.994735 0.0 
0.985456 1.00165 0.0 
1.00672 0.994296 0.0 
0.993591 0.99242 0.0 
1.00386 0.992162 0.0 
0.987615 0.998558 0.0 
0.979714 1.00624 0.0 
0.994449 0.987396 0.0 
0.992245 0.993921 0.0 
0.99392 0.99322 0.0 
0.98729 0.997489 0.0 
0.987883 1.00983 0.0 
0.992652 0.990834 0.0 
1.0021 1.00863 0.0 
0.996465 0.991923 0.0 
0.994695 0.992586 0.0 
1.01251 1.00083 0.0 
0.85203 0.972051 0.0 
1.00404 1.00694 0.0 
0.997176 1.00983 0.0 
0.998336 0.995247 0.0 
0.983876 0.991281 0.0 
0.997868 1.01014 0.0 
0.997929 0.992064 0.0 
0.960334 0.97222 0.0 
1.0302 1.00013 0.0 
0.995671 0.99241 0.0 
1.03426 1.00107 0.0 
0.992937 0.993069 0.0 
0.991598 0.988834 0.0 
1.01282 0.996408 0.0 
0.995582 0.993241 0.0 
0.991375 0.994616 0.0 
0.992855 0.98661 0.0 
1.01981 0.991503 0.0 
0.994826 0.993603 0.0 
0.987424 0.999621 0.0 
0.988679 0.997923 0.0 
1.3986 0.948339 0.0 
0.983942 1.00064 0.0 
1.00047 0.99195 0.0 
0.988188 0.988024 0.0 
1.01328 0.995877 0.0 
1.02866 0.999199 0.0 
0.993377 0.994135 0.0 
1.02775 0.996591 0.0 
0.985211 1.00335 0.0 
1.41234 1.03639 0.0 
1.00264 1.00505 0.0 
0.999503 0.99758 0.0 
1.00071 1.0097 0.0 
0.98677 1.00079 0.0 
1.23023 1.04693 0.0 
1.03332 1.00173 0.0 
0.998503 1.00701 0.0 
[...]
<PointData>
  <DataArray type = "Float64" Name="Vitesse" NumberOfComponents="3" format="ascii">
0.819684 -0.0565581 0.0 
0.443999 0.020648 0.0 
0.94163 0.0273761 0.0 
0.518091 0.015294 0.0 
0.580668 0.00829689 0.0 
0.865906 -0.0900797 0.0 
0.848646 -0.0519693 0.0 
0.0569439 0.00875942 0.0 
0.793351 -0.0310529 0.0 
0.868573 -0.0641525 0.0 
0.888388 -0.0896472 0.0 
0.857785 -0.0852624 0.0 
0.93164 0.0309337 0.0 
0.71661 -0.0101738 0.0 
0.363312 0.020837 0.0 
0.885022 -0.0988544 0.0 
0.813459 -0.0708685 0.0 
0.672201 0.163689 0.0 
0.259532 0.0240992 0.0 
0.479284 0.015753 0.0 
0.461406 0.0108947 0.0 
0.949572 0.0337264 0.0 
0.896855 0.0382111 0.0 
0 0 0.0 
0.915005 0.0368493 0.0 
0.688193 -0.012225 0.0 
0.800549 -0.0414611 0.0 
0.451556 0.0198287 0.0 
0.925105 0.0397864 0.0 
0.802362 -0.0648226 0.0 
0.0725899 0.0122869 0.0 
0.149778 0.0194303 0.0 
0.119903 0.0177243 0.0 
0.335875 0.0241266 0.0 
0.842274 -0.0543166 0.0 
0.366599 0.024085 0.0 
0.321072 0.0248212 0.0 
0.467649 0.0173346 0.0 
0.239423 0.0244832 0.0 
0.627761 0.000957948 0.0 
0.273987 0.0237279 0.0 
0.767461 -0.0309021 0.0 
0.0654597 0.0110069 0.0 
0.602325 0.00365505 0.0 
0.412966 0.0197067 0.0 
0 0 0.0 
0.149121 0.0195643 0.0 
0.626815 -0.00554133 0.0 
0.714371 -0.0143238 0.0 
0.897478 0.0288249 0.0 
0.942186 0.0036456 0.0 
0.959727 -0.0068386 0.0 
0.935285 0.0418402 0.0 
0.765944 -0.0271684 0.0 
0 0 0.0 
0.84253 -0.0770742 0.0 
0.391116 0.0229539 0.0 
0.226924 0.0229349 0.0 
0.945277 0.0425826 0.0 
0 0 0.0 
0.813538 -0.0925958 0.0 
0.796764 -0.010944 0.0 
0.886233 0.0433816 0.0 
0.863098 0.0412676 0.0 
0.778085 -0.000563852 0.0 
0.780725 -0.033394 0.0 
0.792565 -0.250719 0.0 
0.799576 -0.0468657 0.0 
0.792162 0.00222216 0.0 
0.796406 -0.0719615 0.0 
0.731604 -0.220375 0.0 
0.209693 0.023542 0.0 
0.0651823 0.0100814 0.0 
0.82859 -0.0919774 0.0 
0.833548 -0.0583879 0.0 
0.831165 0.0392596 0.0 
0 0 0.0 
0.906002 0.0429055 0.0 
0.144432 0.0190608 0.0 
0.873766 0.0507286 0.0 
0.589506 -0.0975742 0.0 
0 0 0.0 
0.732084 0.1093 0.0 
0.270386 -0.287189 0.0 
0.523145 0.0136779 0.0 
0.0958523 0.0047267 0.0 
0.441594 0.284734 0.0 
0.131189 0.0170241 0.0 
0.906098 0.0333655 0.0 
0.604931 -0.0607244 0.0 
0.887822 0.0327631 0.0 
0.0553862 0.00972939 0.0 
0.85005 -0.0810696 0.0 
0.0576442 0.0102572 0.0 
0.609817 0.200477 0.0 
0.737207 -0.113749 0.0 
0.883342 -0.077033 0.0 
0.670903 0.0624326 0.0 
0.555393 0.00647827 0.0 
0.308975 0.0250265 0.0 
0.808337 0.0889137 0.0 
0.605523 -0.139061 0.0 
0.849223 -0.188549 0.0 
0.689143 -0.00329651 0.0 
0.814289 -0.153583 0.0 
0.74334 -0.132322 0.0 
0.37564 0.251279 0.0 
0.784695 0.0261325 0.0 
0.975526 -0.0133711 0.0 
0.0750355 0.0064112 0.0 
0.429419 0.368013 0.0 
0.30682 0.0116208 0.0 
0 0 0.0 
0.745991 0.102397 0.0 
0.709007 0.155597 0.0 
0 0 0.0 
0.965185 -0.00072033 0.0 
0.143632 0.0114832 0.0 
0.168678 0.0221567 0.0 
0 0 0.0 
0.759831 -0.0185285 0.0 
0.384127 0.0132674 0.0 
0.418664 0.341447 0.0 
0.718848 0.101823 0.0 
0.961815 -0.00587446 0.0 
0 0 0.0 
0.592096 0.180463 0.0 
0.727378 0.208693 0.0 
0.910799 0.0914213 0.0 
0 0 0.0 
0.883629 -0.122315 0.0 
0.306709 0.0581578 0.0 
0.688658 0.133492 0.0 
0.715541 0.238495 0.0 
0.94665 0.0106293 0.0 
0.953058 0.00963339 0.0 
0 0 0.0 
0 0 0.0 
0.802414 -0.0332011 0.0 
0.70508 -0.0417038 0.0 
0.929781 0.0123296 0.0 
0.27628 0.0247401 0.0 
0.264888 0.0209691 0.0 
0.12316 0.0178155 0.0 
0 0 0.0 
0.569985 -0.011713 0.0 
0.0741328 0.0074691 0.0 
0.613033 0.0758638 0.0 
0.0642099 0.013019 0.0 
0.757801 0.491315 0.0 
0.699333 0.46076 0.0 
0.783419 0.414318 0.0 
0.687365 0.0117192 0.0 
0.667167 -0.0217606 0.0 
0.682373 -0.0398535 0.0 
0 0 0.0 
0.86789 -0.100718 0.0 
0.960829 -0.0125001 0.0 
0.783004 0.172696 0.0 
0.966301 0.00623451 0.0 
0.072311 0.0123935 0.0 
0.817127 0.0122884 0.0 
0.724887 0.40366 0.0 
0.819931 -0.0422851 0.0 
0.938645 0.0116502 0.0 
0.626721 -0.0982509 0.0 
0.724285 -0.18267 0.0 
0.649198 -0.00032971 0.0 
0.949356 0.00284061 0.0 
0.582606 0.398125 0.0 
0 0 0.0 
0.53334 0.305739 0.0 
0.798786 -0.222948 0.0 
0.195252 0.022052 0.0 
0.238862 0.185505 0.0 
0 0 0.0 
0.945509 -0.00245328 0.0 
0.806435 0.00795499 0.0 
0.789793 0.0734239 0.0 
0.649204 -0.0292701 0.0 
0.643169 0.458302 0.0 
0.255177 0.185508 0.0 
0.275735 -0.00364834 0.0 
0.761554 0.457504 0.0 
0.476063 -0.309639 0.0 
0.934334 0.00382673 0.0 
0.447728 -0.0545884 0.0 
0 0 0.0 
0.957549 0.00341017 0.0 
0.452903 0.00991205 0.0 
0.925568 0.00367264 0.0 
0.727883 0.0790605 0.0 
0 0 0.0 
0.910218 0.0184827 0.0 
0.624883 0.466917 0.0 
0.405123 0.01921 0.0 
0 0 0.0 
0.760062 -0.0872549 0.0 
0.831099 -0.00357897 0.0 
0.811499 -0.0502966 0.0 
0.804969 -0.0815288 0.0 
0.969613 -0.00686514 0.0 
0.664238 -0.051206 0.0 
0.688674 0.343609 0.0 
0.22534 0.0190696 0.0 
0.919586 0.0128276 0.0 
0.743582 0.116068 0.0 
0.573398 -0.119434 0.0 
0.290804 0.0178576 0.0 
0.300609 0.0135878 0.0 
0.785108 -0.0458487 0.0 
0.703719 0.108413 0.0 
0.847032 -0.0355716 0.0 
0.650102 -0.149111 0.0 
0.695874 -0.00494564 0.0 
0 0 0.0 
0.748518 0.128293 0.0 
0.688867 0.0439339 0.0 
0 0 0.0 
0.199415 0.195707 0.0 
0.676757 -0.00527774 0.0 
0.69913 0.284402 0.0 
0.766702 0.151801 0.0 
0.233639 0.189861 0.0 
0 0 0.0 
0.790285 -0.0604458 0.0 
0.704397 0.0924809 0.0 
0.938977 -0.00368475 0.0 
0 0 0.0 
0.765961 0.00302906 0.0 
0.870322 0.017039 0.0 
0.879115 0.0262208 0.0 
0.827635 -0.0504675 0.0 
0.820594 -0.0244478 0.0 
0.708948 0.324696 0.0 
0.785596 0.158081 0.0 
0.832642 -0.0795993 0.0 
0.228593 0.0134319 0.0 
0.821379 -0.0721718 0.0 
0.703411 -0.0815483 0.0 
0.563275 0.00921868 0.0 
0.637282 0.253309 0.0 
0.709722 0.256084 0.0 
0.621752 0.00156493 0.0 
0.733407 0.362718 0.0 
0.84409 0.00960398 0.0 
0.675434 0.0285598 0.0 
0.720922 0.0658139 0.0 
0.146072 0.0156013 0.0 
0.740173 0.381189 0.0 
0.395128 0.0181731 0.0 
0.68577 -0.169806 0.0 
0.658801 0.0729366 0.0 
0.848239 0.0210416 0.0 
0.539314 -0.254189 0.0 
0.75253 0.00596598 0.0 
0.62977 0.273485 0.0 
0.759457 0.428204 0.0 
0.85981 0.0223567 0.0 
0.683659 0.484298 0.0 
0.387535 0.209269 0.0 
0.732406 0.0936421 0.0 
0 0 0.0 
0.776571 0.0658445 0.0 
0.966523 0.0186174 0.0 
0.796536 0.100159 0.0 
0.657749 -0.116951 0.0 
0 0 0.0 
0.618484 0.462261 0.0 
0.630716 -0.236301 0.0 
0.665474 0.0125464 0.0 
0.831617 -0.037585 0.0 
0.886006 -0.114317 0.0 
0.691447 0.474702 0.0 
0.336444 0.012028 0.0 
0.85108 -0.0917314 0.0 
0.858393 0.0539855 0.0 
0.582521 -0.198385 0.0 
0.831569 -0.0271435 0.0 
0.928499 0.0514889 0.0 
0.856653 -0.116015 0.0 
0.259646 0.241431 0.0 
0.824796 -0.0134963 0.0 
0.819571 0.120541 0.0 
0.966575 0.0116702 0.0 
0 0 0.0 
0.492836 -0.191457 0.0 
0 0 0.0 
0.962925 0.0293341 0.0 
0.810133 -0.130677 0.0 
0.754829 0.249767 0.0 
0.472868 0.393858 0.0 
0.867407 -0.104348 0.0 
0.631049 -0.0181892 0.0 
0.742926 0.271967 0.0 
0.831201 0.00822191 0.0 
0.545369 0.0532307 0.0 
0.623817 0.0953753 0.0 
0.959201 0.0228056 0.0 
0.771523 0.261826 0.0 
0.852959 -0.102234 0.0 
0.610755 0.157848 0.0 
0.73756 0.496451 0.0 
0.957414 -0.0103691 0.0 
0.836971 -0.0453305 0.0 
0.871206 -0.127087 0.0 
0.810911 -0.0528012 0.0 
0.491572 0.0138543 0.0 
0.973415 0.00752065 0.0 
0.741096 -0.0482804 0.0 
0 0 0.0 
0.130878 0.011373 0.0 
0.514886 -0.00865675 0.0 
0.974928 0.0267718 0.0 
0.979452 0.0214161 0.0 
0.556794 0.428002 0.0 
0.755926 0.142263 0.0 
0.728306 -0.294668 0.0 
0 0 0.0 
0.6888 -0.137753 0.0 
0.819156 0.00242975 0.0 
0.689608 -0.0586815 0.0 
0.565684 0.442984 0.0 
0.667878 0.452326 0.0 
0.320316 0.0102862 0.0 
0.604884 0.0209414 0.0 
0.54647 -0.0240051 0.0 
0.643343 0.0300331 0.0 
0.643683 0.439282 0.0 
0.663477 0.470652 0.0 
0.644849 0.216507 0.0 
0.798621 -0.169592 0.0 
0.669869 0.0470657 0.0 
0.983931 0.0163587 0.0 
0 0 0.0 
0.973507 0.0200976 0.0 
0.233191 0.215611 0.0 
0.762327 0.38205 0.0 
0.730882 0.289906 0.0 
0.713292 0.429531 0.0 
0.875215 -0.138355 0.0 
0.719912 -0.151163 0.0 
0.885456 -0.0825831 0.0 
0.765017 -0.0990932 0.0 
0.832528 -0.0361209 0.0 
0.759267 0.265265 0.0 
0.679829 0.294446 0.0 
0.490577 0.0171147 0.0 
0.813652 -0.0771752 0.0 
0 0 0.0 
0.369908 0.00503298 0.0 
0.243048 0.0105919 0.0 
0.693049 0.186881 0.0 
0.734544 0.240343 0.0 
0.539402 -0.02848 0.0 
0.773604 -0.111741 0.0 
0.799538 -0.0228759 0.0 
0.705482 0.0761521 0.0 
0 0 0.0 
0.825251 -0.102234 0.0 
0.812574 -0.036941 0.0 
0.511673 0.00888676 0.0 
0 0 0.0 
0.783432 -0.0102257 0.0 
0 0 0.0 
0.746888 0.307952 0.0 
0.60027 0.420135 0.0 
0.349717 0.0083492 0.0 
0.636056 0.00268216 0.0 
0.725237 0.309824 0.0 
0.676036 0.251258 0.0 
0.693541 0.265856 0.0 
0.826206 0.0182645 0.0 
0 0 0.0 
0.738746 0.00707533 0.0 
0.589596 -0.0194426 0.0 
0.940627 0.0516575 0.0 
0.650459 0.470069 0.0 
0.755092 -0.113669 0.0 
0.890003 -0.0866335 0.0 
0.794688 -0.13101 0.0 
0 0 0.0 
0.183834 0.0109954 0.0 
0.472993 -0.0244206 0.0 
0.751825 0.288614 0.0 
0.725705 0.193512 0.0 
0.080597 0.00776014 0.0 
0.807 0.0196706 0.0 
0.74635 -0.25766 0.0 
0.872779 -0.151594 0.0 
0.780039 0.0944627 0.0 
0.860127 -0.0685116 0.0 
0.77489 -0.0434006 0.0 
0.877823 -0.105662 0.0 
0.761348 0.0592861 0.0 
0.832648 0.117417 0.0 
0.821078 -0.0444521 0.0 
0.759095 -0.0224145 0.0 
0.763814 -0.0474926 0.0 
0.769088 0.0496032 0.0 
0.796745 0.18358 0.0 
0.792077 -0.0340051 0.0 
0.71177 0.471335 0.0 
0.789349 -0.0788432 0.0 
0.773344 -0.0580219 0.0 
0 0 0.0 
0.967856 0.0252055 0.0 
0.524248 0.394204 0.0 
0.732617 0.327652 0.0 
0.754244 -0.155656 0.0 
0.817879 0.0239314 0.0 
0.739139 0.345566 0.0 
0.800492 -0.0967795 0.0 
0.899194 0.0198735 0.0 
0.142872 0.00585528 0.0 
0.778791 -0.0711749 0.0 
0.0924374 0.00278003 0.0 
0.767571 -0.0342552 0.0 
0.809457 -0.0264323 0.0 
0.524317 0.0147408 0.0 
0.765943 -0.0733693 0.0 
0.755355 -0.00786135 0.0 
0.823528 -0.034011 0.0 
0.821849 -0.0308128 0.0 
0.758246 -0.0616099 0.0 
0.760404 0.0715144 0.0 
0.752523 0.0472147 0.0 
0.969295 -0.010834 0.0 
0.793545 0.0849123 0.0 
0.834562 -0.112934 0.0 
0.819064 -0.00662308 0.0 
0.588072 0.00909847 0.0 
0.205693 0.0077501 0.0 
0.751364 -0.0374286 0.0 
0.418684 0.00452379 0.0 
0.78492 0.110559 0.0 
0.991015 -0.0433498 0.0 
0.374609 0.314625 0.0 
0.690468 -0.295948 0.0 
0.736723 0.42482 0.0 
0.766031 0.0855267 0.0 
1.04423 -0.0587099 0.0 
0.0571531 0.00224056 0.0 
0.640989 0.355705 0.0 
0.770372 0.498775 0.0 
0.777763 0.0796334 0.0 
0.762213 0.169695 0.0 
0.798567 0.137465 0.0 
0.860711 -0.105948 0.0 
0.74074 -0.0630798 0.0 
0.413864 0.0119629 0.0 
0.998108 -0.00229242 0.0 
0.611905 0.455021 0.0 
0.580448 0.42778 0.0 
0.719639 0.481557 0.0 
0.728206 0.490831 0.0 
0.604784 0.103716 0.0 
0.745885 -0.0964683 0.0 
0.0641663 0.00887217 0.0 
1.04509 -0.0507516 0.0 
0.242934 0.182601 0.0 
0.48122 0.338366 0.0 
0 0 0.0 
0.661857 -0.0693446 0.0 
1.04105 -0.0460747 0.0 
0.789676 -0.190828 0.0 
0.421251 0.323783 0.0 
0.758392 0.0350474 0.0 
0.750896 -0.0134037 0.0 
0.762545 0.0177967 0.0 
0.640517 -0.184034 0.0 
1.00395 0 0.0 
0.533463 0.00624631 0.0 
0.83262 0.132236 0.0 
0.186441 0.00323338 0.0 
0.790016 -0.0226186 0.0 
0.70232 0.140247 0.0 
0.788911 0.246489 0.0 
0.786744 0.457446 0.0 
0.492683 0.0160923 0.0 
0.137334 0.0132082 0.0 
0.727947 -0.0534487 0.0 
0.732919 -0.0360862 0.0 
0.778948 0.438051 0.0 
0.225216 0.0209416 0.0 
0 0 0.0 
0.823454 0.090901 0.0 
0.385069 0.0140377 0.0 
0 0 0.0 
0.719706 0.0406105 0.0 
0.869014 -0.111855 0.0 
0.768509 0.402056 0.0 
0.759006 -0.189214 0.0 
0.489618 0.0651451 0.0 
0.113659 0.0056638 0.0 
1.04113 -0.0513778 0.0 
0.735987 -0.178642 0.0 
0 0 0.0 
0.788567 0.143721 0.0 
0.721979 0.165742 0.0 
0.787034 0.257871 0.0 
0.718204 -0.124966 0.0 
0.44731 0.000493064 0.0 
0.765612 -0.129034 0.0 
0.373335 0.111651 0.0 
0.20537 0.0136538 0.0 
0.59753 0.268444 0.0 
0.205174 0.0101798 0.0 
0.730756 -0.0824021 0.0 
0.621402 -0.0802392 0.0 
0.741783 -0.0205649 0.0 
0.617365 -0.292195 0.0 
0.694643 0.0853954 0.0 
0.66874 -0.00712575 0.0 
0.795993 0.17169 0.0 
0.845118 -0.108564 0.0 
0.835575 -0.211861 0.0 
0 0 0.0 
0.730729 -0.0148442 0.0 
0.448607 0.223148 0.0 
0.0325286 0.00312896 0.0 
0.729224 0.255319 0.0 
0.717943 0.0888007 0.0 
0.715943 -0.0254201 0.0 
0.830742 -0.148055 0.0 
0.0933909 0.00333447 0.0 
0.326172 0.317133 0.0 
0.658686 0.309327 0.0 
0.104071 0.00892596 0.0 
0.692082 -0.0461809 0.0 
0.457855 0.00390119 0.0 
1.03585 -0.0484942 0.0 
0.605611 0.13088 0.0 
0.759569 -0.0146932 0.0 
0.631917 0.42253 0.0 
0.23844 0.00950575 0.0 
0.850758 -0.182903 0.0 
0.0627942 0.00409305 0.0 
0.890516 -0.0963354 0.0 
0.210594 0.16539 0.0 
0.719576 0.136776 0.0 
0.791258 -0.0240025 0.0 
0.823655 0.144988 0.0 
0.786389 0.128214 0.0 
0.82575 -0.137487 0.0 
0.0806217 0.00997572 0.0 
0.636817 -0.056742 0.0 
0.488993 0.0114019 0.0 
0.711475 0.219245 0.0 
0.76999 0.296565 0.0 
0.758086 0.1148 0.0 
0.95237 -0.0125418 0.0 
0.834337 -0.0129789 0.0 
0.471726 0.158481 0.0 
0.571084 0.280922 0.0 
0.651564 0.0528511 0.0 
0.504161 -0.0643096 0.0 
0.0748231 0.0082593 0.0 
0.605698 -0.331514 0.0 
0.865458 -0.159449 0.0 
0.456722 -0.126119 0.0 
0.83288 -0.158163 0.0 
0.409608 -0.0794696 0.0 
0.811501 -0.103843 0.0 
0.699615 -0.0121772 0.0 
0.778337 0.0119977 0.0 
0.441618 0.112521 0.0 
0 0 0.0 
0.182292 0.0103601 0.0 
0.654703 0.234487 0.0 
0.594147 0.417455 0.0 
0 0 0.0 
0.67354 -0.00101809 0.0 
1.04902 -0.0557988 0.0 
0 0 0.0 
0.125674 0.0133708 0.0 
0.671868 0.144037 0.0 
0 0 0.0 
0.705824 0.0639071 0.0 
0.932487 0.0703165 0.0 
0.705375 0.124518 0.0 
0.379033 0.0026344 0.0 
0.662845 0.336151 0.0 
0.71034 -0.0598467 0.0 
0.87901 -0.136877 0.0 
0.883439 -0.0883143 0.0 
0.606918 0.293197 0.0 
0.754605 0.357889 0.0 
0.708948 0.190449 0.0 
0.194637 0.00863447 0.0 
0.761823 0.129416 0.0 
0.820678 -0.183736 0.0 
0.685583 0.0971475 0.0 
0.0938174 0.00647155 0.0 
0 0 0.0 
0.805486 0.163794 0.0 
0.828698 0.0277589 0.0 
0.709205 -0.0666422 0.0 
0.798138 0.197016 0.0 
0 0 0.0 
0.587081 0.0492413 0.0 
0.616756 0.375358 0.0 
0.699367 0.48816 0.0 
0 0 0.0 
0.44319 -0.0262538 0.0 
0.772771 0.121812 0.0 
0.836926 -0.0683063 0.0 
0.787457 -0.0932772 0.0 
0.820167 0.160602 0.0 
0.748127 0.0207349 0.0 
0 0 0.0 
0.783379 0.0515604 0.0 
0 0 0.0 
0.683639 0.4789 0.0 
0.833327 -0.125679 0.0 
0.71648 0.378437 0.0 
0.83478 -0.0344315 0.0 
0.226588 0.180726 0.0 
0 0 0.0 
0.893876 0.118464 0.0 
0.815277 -0.0275092 0.0 
0.78638 0.268668 0.0 
0.323207 0.0046749 0.0 
0.722187 -0.101707 0.0 
0.79728 -0.14813 0.0 
0.576309 0.00717203 0.0 
0.845936 -0.128666 0.0 
0.452667 0.368247 0.0 
0.374481 0.0169884 0.0 
0.736821 0.0481272 0.0 
0.724629 0.179026 0.0 
0 0 0.0 
0.0829622 0.00622843 0.0 
0.827983 0.104781 0.0 
0.922207 0.070188 0.0 
0.606511 0.246573 0.0 
0.682183 -0.0034029 0.0 
0.868947 0.0973863 0.0 
0 0 0.0 
0.882513 0.120317 0.0 
0.425153 0.315439 0.0 
0.840533 -0.138731 0.0 
0 0 0.0 
0.797732 0.0278451 0.0 
0.679521 0.433111 0.0 
0.737765 0.458915 0.0 
0.847664 -0.0367233 0.0 
0.814847 -0.113779 0.0 
0.541577 0.394203 0.0 
0.986617 0.00448274 0.0 
0.638731 0.470565 0.0 
0.502785 0.376999 0.0 
0.261736 0.266088 0.0 
0.698592 0.48454 0.0 
0.148911 0.00671325 0.0 
0 0 0.0 
0.625433 0.224181 0.0 
0.743905 0.213169 0.0 
0.747284 0.229738 0.0 
0.776283 0.037656 0.0 
0.269465 0.193674 0.0 
0.77275 0.210264 0.0 
0.80999 0.0412421 0.0 
0.680872 -0.12162 0.0 
0.758012 0.329182 0.0 
0.784813 -0.122009 0.0 
0.885127 -0.102165 0.0 
0.880247 0.0756509 0.0 
0.729159 0.153609 0.0 
1.03994 -0.0593504 0.0 
0.631455 0.301126 0.0 
0.819862 0.0459425 0.0 
0.840803 0.0307779 0.0 
0.910256 0.0587122 0.0 
0.808872 0.0307915 0.0 
0.0994875 0.00564999 0.0 
0.989217 0.000239586 0.0 
0.879723 0.0637013 0.0 
0.0988384 0.0130735 0.0 
0.101086 0.00616266 0.0 
0.858243 0.0756383 0.0 
0.715086 -0.00459469 0.0 
0.748256 0.478668 0.0 
0.775044 -0.0860389 0.0 
0.0325689 0.00382163 0.0 
0.33436 0.317659 0.0 
0.800898 0.0372362 0.0 
0.771862 0.025369 0.0 
0.754368 0.187805 0.0 
1.0359 -0.0444252 0.0 
0.778296 -0.0994933 0.0 
0.910644 0.0703608 0.0 
1.00059 0.00506835 0.0 
0.389145 0.308998 0.0 
0.771239 0.476962 0.0 
0.636993 0.157034 0.0 
0 0 0.0 
0.798375 0.153034 0.0 
0.0514446 0.00785023 0.0 
0.865685 0.0638694 0.0 
0.526425 0.347959 0.0 
1 0 0.0 
0.718902 0.117673 0.0 
1.00004 0.00907032 0.0 
0.685746 -0.208802 0.0 
0 0 0.0 
0.879573 0.0971993 0.0 
0.684395 0.317716 0.0 
0.822309 -0.0283816 0.0 
0.516515 0.0153927 0.0 
0.698062 0.228341 0.0 
0.62293 0.00200922 0.0 
0.819142 0.0802852 0.0 
0.535144 0.0968935 0.0 
0.867197 0.02917 0.0 
0.890441 0.0976331 0.0 
0.8701 0.0749815 0.0 
0.841364 -0.0885523 0.0 
0.854247 0.0658072 0.0 
0.988489 0.0183408 0.0 
0.846131 -0.0980704 0.0 
0.741768 0.197862 0.0 
0.780257 -0.141593 0.0 
0.833547 0.0571792 0.0 
0.855542 0.116984 0.0 
0.800378 0.117692 0.0 
0.844051 0.122732 0.0 
0.508002 0.19033 0.0 
0.989023 0.0127509 0.0 
0.587341 0.215519 0.0 
0.809537 0.179461 0.0 
0 0 0.0 
0.306542 0.00239296 0.0 
0.691981 0.370724 0.0 
0.39429 -0.00445294 0.0 
0.700854 -0.0416821 0.0 
0.163958 0.0150851 0.0 
0.846334 0.0760698 0.0 
0.748579 0.403672 0.0 
0.115404 0.0142779 0.0 
0.985639 0.0228996 0.0 
0.790049 0.0381844 0.0 
0.680022 0.229828 0.0 
0.890142 0.0703799 0.0 
0.576832 0.0826942 0.0 
0.787839 0.21779 0.0 
0.892581 0.0585986 0.0 
0.996962 0.0051505 0.0 
0.373886 0.338048 0.0 
0.898637 0.0763034 0.0 
0.507529 0.23655 0.0 
0.768342 0.193701 0.0 
0.379977 0.354263 0.0 
0 0 0.0 
0.317827 -0.039649 0.0 
0.623998 0.40455 0.0 
0.707914 0.445778 0.0 
0.689315 0.207785 0.0 
0.858473 -0.112841 0.0 
0.793364 0.0624346 0.0 
0.284991 0.173793 0.0 
1.00031 0.0129551 0.0 
1 0 0.0 
0.840149 0.106945 0.0 
0.857494 0.0129418 0.0 
0.996862 0.0142759 0.0 
0.495546 0.278933 0.0 
0.870838 0.112442 0.0 
0.376315 0.275982 0.0 
0.832707 0.0776395 0.0 
0.851025 0.0855363 0.0 
0.997962 0.00966234 0.0 
0.874352 0.0862147 0.0 
0.895336 0.0482694 0.0 
0 0 0.0 
0.576575 0.308957 0.0 
0.861551 0.0882679 0.0 
0.809354 0.148884 0.0 
0.998314 0.00224687 0.0 
0.635579 0.198482 0.0 
0.744564 -0.00550181 0.0 
0.676973 -0.0957813 0.0 
0.46838 0.0178424 0.0 
0 0 0.0 
0.82121 0.133327 0.0 
0.691253 0.169397 0.0 
0.901278 0.0644345 0.0 
0.752789 -0.0519132 0.0 
0.749824 0.0830696 0.0 
0.738556 0.141244 0.0 
0.70709 0.0103747 0.0 
0.761915 0.0979736 0.0 
0.810992 0.133093 0.0 
0.49322 0.355443 0.0 
0.625899 -0.0265201 0.0 
1 0 0.0 
0.564074 0.0124515 0.0 
0.842341 0.0625227 0.0 
0.916554 0.0478346 0.0 
0.842202 -0.000545145 0.0 
0.414041 0.0600607 0.0 
0.267492 -0.0661047 0.0 
0.730242 -0.0085901 0.0 
0 0 0.0 
0.656036 0.196322 0.0 
0.821846 -0.202356 0.0 
0.999804 0 0.0 
0.408448 -0.073109 0.0 
0.657376 0.111775 0.0 
0.673924 0.187457 0.0 
1.00489 0.00566922 0.0 
0.844133 -0.122335 0.0 
1.00251 0.00318907 0.0 
0.779556 -0.104983 0.0 
0.846011 0.0453204 0.0 
0.773053 0.251334 0.0 
0.906473 0.0834186 0.0 
1 0 0.0 
0.799192 0.0486754 0.0 
0.999547 0.00469818 0.0 
0.713824 -0.238373 0.0 
0.787888 -0.0220477 0.0 
0.897153 0.0870152 0.0 
0.992993 0.0167192 0.0 
0.603448 0.32496 0.0 
0.85019 0.0972875 0.0 
0.495443 -0.203587 0.0 
0.0537492 -0.0341645 0.0 
0.993819 0.0100241 0.0 
0.676509 0.109271 0.0 
0 0 0.0 
0.561623 0.43855 0.0 
0.193162 0.072019 0.0 
0.981015 0.00368231 0.0 
0.109182 0.139173 0.0 
0.766589 -0.0186802 0.0 
0.564435 -0.0637023 0.0 
0.398251 0.0103192 0.0 
0.677531 -0.0741857 0.0 
0.878733 -0.115568 0.0 
0.629359 0.140126 0.0 
0.774191 0.163381 0.0 
0.761094 0.232787 0.0 
0.466021 0.0161956 0.0 
0.61195 0.453294 0.0 
0.689878 0.0606199 0.0 
0.329656 -0.215246 0.0 
0.643674 0.00202688 0.0 
0.0316522 0.00288205 0.0 
0.078175 0.00991558 0.0 
0.276662 0.0227001 0.0 
0.110613 0.0177973 0.0 
0.403956 0.314671 0.0 
0.790799 -0.0890472 0.0 
0.656607 0.411499 0.0 
0.903822 0.0531235 0.0 
0.771824 -0.22179 0.0 
0.657149 0.257277 0.0 
1.06038 0.0471009 0.0 
0.997789 -0.00571432 0.0 
0.750397 -0.0769753 0.0 
0.978182 -0.0212126 0.0 
0.918656 0.0952328 0.0 
0.784936 0.203083 0.0 
0.692566 0.403968 0.0 
0.690615 -0.0239565 0.0 
0.794059 0.0155547 0.0 
0.888086 -0.07703 0.0 
0.633317 -0.00211343 0.0 
0 0 0.0 
0.136097 0.0136829 0.0 
0.571954 0.245594 0.0 
0.988753 0.00271887 0.0 
1.07457 0.0403374 0.0 
0.193213 0.20928 0.0 
0.940826 0.0354361 0.0 