<VTKFile type="UnstructuredGrid" version="0.1" byte_order="LittleEndian">
  <UnstructuredGrid>
    <Piece NumberOfPoints="16475" NumberOfCells="32443">
      <Points>
        <DataArray type = "Float64" NumberOfComponents="3" format="ascii">
1.00404 1.06378 0.0 
1.00087 1.00158 0.0 
1.00334 1.00405 0.0 
1.00886 1.06632 0.0 
0.987646 1.02295 0.0 
1.00487 1.00534 0.0 
0.988258 1.01868 0.0 
0.999849 1.01104 0.0 
1.00349 1.01072 0.0 
1.00033 1.01574 0.0 
1.01887 1.03827 0.0 
0.986151 1.01982 0.0 
0.991303 1.0139 0.0 
1.00359 1.00828 0.0 
0.982541 1.03528 0.0 
0.993139 1.05369 0.0 
1.03174 1.02328 0.0 
1.02654 1.02145 0.0 
0.98891 1.0167 0.0 
0.986402 1.0174 0.0 
0.987178 1.0156 0.0 
0.982693 1.03868 0.0 
0.989404 1.03398 0.0 
1.00643 1.00659 0.0 
0.986244 1.02921 0.0 
0.979164 1.03431 0.0 
0.990308 1.00874 0.0 
1.00369 1.0149 0.0 
0.98589 1.02581 0.0 
0.988594 1.03106 0.0 
1.00856 1.0145 0.0 
1.00807 0.988403 0.0 
0.989952 1.0213 0.0 
0.991483 1.00825 0.0 
0.989997 1.02847 0.0 
1.00263 1.00836 0.0 
0.989848 1.02298 0.0 
0.988273 1.04236 0.0 
1.0008 1.00721 0.0 
1.00092 1.00627 0.0 
0.982408 1.02812 0.0 
0.982601 1.03129 0.0 
0.98947 1.01952 0.0 
0.986227 1.0217 0.0 
0.998845 1.0077 0.0 
0.982096 0.962206 0.0 
1.00694 1.01603 0.0 
0.99935 1.00436 0.0 
1.00441 1.01401 0.0 
0.987951 1.02066 0.0 
1.01667 1.02214 0.0 
0.999785 1.04844 0.0 
1.02341 1.03031 0.0 
1.00611 1.01687 0.0 
1.0277 1.0235 0.0 
1.01294 1.02371 0.0 
1.01578 1.02529 0.0 
1.00269 1.01032 0.0 
1.01666 1.02828 0.0 
1.00184 1.00455 0.0 
0.998162 1.00502 0.0 
0.999057 1.00493 0.0 
0.995766 1.0133 0.0 
1.00168 1.0108 0.0 
1.02697 1.02455 0.0 
1.00078 1.01172 0.0 
0.999923 1.00401 0.0 
1.00734 1.01387 0.0 
0.997546 1.01728 0.0 
0.997925 1.01534 0.0 
1.0066 1.01395 0.0 
1.00443 1.00837 0.0 
0.997917 1.01164 0.0 
0.995972 1.0122 0.0 
1.00613 1.01227 0.0 
1.00411 1.01103 0.0 
1.01043 1.01793 0.0 
1.00068 1.01074 0.0 
0.998513 1.00383 0.0 
0.999464 1.00317 0.0 
1.00777 1.01433 0.0 
1.00058 1.00432 0.0 
1.02906 1.01581 0.0 
0.996768 1.01271 0.0 
1.00573 1.01163 0.0 
1.02909 1.02596 0.0 
1.00654 1.0219 0.0 
0.996551 1.00513 0.0 
1.00855 1.01746 0.0 
0.996802 1.00836 0.0 
1.00232 1.01297 0.0 
1.00314 1.0055 0.0 
1.00544 1.01046 0.0 
1.00937 1.06093 0.0 
1.02107 1.0187 0.0 
0.998448 1.01048 0.0 
1.00984 1.01994 0.0 
1.02549 1.02248 0.0 
1.01525 1.02109 0.0 
1.0048 1.00911 0.0 
0.996825 1.01154 0.0 
1.01879 1.02707 0.0 
1.03206 0.951215 0.0 
1.00243 1.02017 0.0 
0.991873 0.99548 0.0 
0.991354 1.01061 0.0 
1.0143 1.02082 0.0 
1.01554 1.03894 0.0 
0.990069 1.01085 0.0 
0.993749 1.01124 0.0 
0.927522 1.16074 0.0 
1.00174 1.01403 0.0 
1.00981 0.996622 0.0 
1.00085 1.00256 0.0 
1.00297 1.01576 0.0 
1.00962 1.01722 0.0 
1.01756 1.03413 0.0 
0.994802 1.01096 0.0 
1.01236 1.0192 0.0 
1.00071 1.03004 0.0 
0.999181 1.0104 0.0 
1.00206 1.00286 0.0 
0.992266 1.01172 0.0 
0.997386 1.00544 0.0 
1.03054 1.01755 0.0 
0.997575 1.01236 0.0 
1.0063 1.00912 0.0 
1.02077 1.01399 0.0 
1.00171 1.00251 0.0 
0.995657 0.994064 0.0 
1.00695 1.01332 0.0 
1.00751 1.01703 0.0 
1.02318 1.02652 0.0 
1.02112 1.01469 0.0 
0.993382 1.00814 0.0 
1.01172 1.01718 0.0 
1.02492 1.01508 0.0 
0.998045 1.01975 0.0 
1.00004 1.00324 0.0 
1.02572 1.01684 0.0 
1.00322 1.00479 0.0 
1.00449 1.0059 0.0 
1.00469 1.01062 0.0 
1.0048 1.00995 0.0 
1.00242 1.00321 0.0 
1.00424 1.00964 0.0 
1.0051 1.01324 0.0 
1.00146 1.00302 0.0 
1.02549 1.01825 0.0 
0.992598 1.0144 0.0 
1.00477 1.01677 0.0 
0.978853 0.977057 0.0 
1.01827 1.02978 0.0 
1.00308 1.01394 0.0 
0.995032 1.01479 0.0 
0.999961 1.01669 0.0 
1.02417 1.01635 0.0 
1.01315 1.02103 0.0 
0.993451 1.00911 0.0 
0.996683 1.0059 0.0 
1.00896 1.01595 0.0 
1.00334 1.04918 0.0 
1.00188 1.00269 0.0 
1.00696 1.01256 0.0 
1.00494 1.00757 0.0 
1.00249 1.00502 0.0 
0.992368 1.01315 0.0 
0.984774 1.0234 0.0 
1.00179 1.01889 0.0 
1.01666 1.02351 0.0 
1.01565 1.02231 0.0 
0.972984 1.02133 0.0 
1.00509 1.00838 0.0 
1.00651 1.01139 0.0 
1.0057 1.00803 0.0 
0.986772 1.01414 0.0 
1.00565 1.00748 0.0 
0.974644 0.972932 0.0 
1.0062 1.00993 0.0 
1.00418 1.00784 0.0 
0.996823 1.01361 0.0 
1.00545 1.00581 0.0 
1.00387 1.04014 0.0 
0.992752 1.01023 0.0 
0.962804 1.04166 0.0 
0.99244 1.00765 0.0 
0.988277 1.01286 0.0 
1.0057 1.01108 0.0 
1.00727 1.01925 0.0 
0.991482 1.00941 0.0 
1.00391 0.994977 0.0 
1.00607 1.00858 0.0 
1.00874 1.01908 0.0 
0.989788 1.0121 0.0 
0.992498 1.0088 0.0 
1.01107 1.01378 0.0 
0.993855 1.0182 0.0 
1.00413 1.0103 0.0 
0.99256 1.01571 0.0 
1.00236 1.0057 0.0 
0.995954 1.00658 0.0 
0.99969 1.01502 0.0 
1.00032 1.01256 0.0 
1.01441 1.03118 0.0 
1.00552 1.00958 0.0 
1.00944 1.04313 0.0 
1.02032 1.01939 0.0 
0.996534 1.00709 0.0 
0.988393 1.01117 0.0 
1.00925 1.02109 0.0 
1.00272 1.04484 0.0 
1.00006 1.00245 0.0 
1.00558 1.00881 0.0 
1.00234 1.00903 0.0 
0.990541 1.00988 0.0 
1.00448 1.00502 0.0 
0.991015 1.01158 0.0 
1.01755 1.02517 0.0 
0.994334 1.0098 0.0 
1.0036 1.01657 0.0 
1.00578 1.02098 0.0 
0.983986 1.01911 0.0 
1.00604 1.04303 0.0 
1.01885 1.02275 0.0 
0.999807 1.00475 0.0 
1.00274 1.00958 0.0 
1.00136 1.00892 0.0 
1.00204 1.00856 0.0 
0.998765 1.01471 0.0 
1.00322 1.00899 0.0 
0.998888 1.00615 0.0 
1.00561 1.00696 0.0 
0.999616 1.01195 0.0 
1.02158 1.01584 0.0 
1.0013 1.00677 0.0 
1.00651 1.01196 0.0 
0.981871 0.981877 0.0 
0.997709 1.00661 0.0 
1.00289 1.00619 0.0 
1.00977 1.0096 0.0 
0.99789 1.00922 0.0 
1.01213 1.02227 0.0 
1.00368 1.00612 0.0 
0.99522 1.00886 0.0 
1.02529 0.93073 0.0 
1.00624 1.01066 0.0 
0.995942 1.00826 0.0 
1.00506 1.0055 0.0 
1.00297 1.00372 0.0 
1.01331 1.02782 0.0 
1.01131 1.01515 0.0 
0.999476 1.00886 0.0 
1.00657 1.01769 0.0 
1.00593 1.01941 0.0 
1.00158 1.01564 0.0 
1.00245 1.01803 0.0 
0.999618 1.0141 0.0 
1.00033 1.00851 0.0 
1.00336 1.01916 0.0 
1.00756 1.02114 0.0 
0.989507 1.03832 0.0 
1.00108 1.01762 0.0 
0.998745 1.01835 0.0 
0.995183 1.01901 0.0 
0.994922 0.995909 0.0 
0.999255 1.00375 0.0 
0.986994 0.998101 0.0 
1.01481 1.02376 0.0 
0.995195 1.01751 0.0 
1.00869 1.01674 0.0 
0.989864 1.01353 0.0 
1.02549 1.01593 0.0 
0.974435 1.01843 0.0 
0.991456 1.01503 0.0 
0.994086 1.01644 0.0 
0.996311 1.017 0.0 
1.0061 1.01338 0.0 
1.02233 1.02024 0.0 
1.00036 1.0187 0.0 
1.01605 1.04754 0.0 
1.00669 1.02023 0.0 
1.00124 1.01266 0.0 
1.01128 1.0209 0.0 
0.973077 0.987133 0.0 
0.995873 1.00744 0.0 
1.02333 1.01859 0.0 
1.02365 1.0168 0.0 
1.00436 1.01205 0.0 
1.01409 1.02214 0.0 
0.978856 1.03801 0.0 
0.998595 1.0137 0.0 
1.01475 1.01931 0.0 
1.03043 1.0254 0.0 
1.01399 1.01843 0.0 
0.995543 0.983021 0.0 
1.00635 1.01284 0.0 
0.992411 1.01727 0.0 
1.01165 1.01354 0.0 
1.02008 1.01854 0.0 
0.997811 1.0109 0.0 
1.02963 1.02242 0.0 
1.01205 1.0129 0.0 
1.02067 1.02313 0.0 
1.02527 1.01905 0.0 
1.02546 1.01989 0.0 
0.996898 1.01597 0.0 
1.02242 1.01569 0.0 
0.991116 1.01265 0.0 
0.969138 0.983921 0.0 
0.998342 1.00659 0.0 
1.00379 1.01769 0.0 
1.00979 1.03974 0.0 
0.971615 0.96809 0.0 
0.995076 1.00707 0.0 
0.997305 1.02287 0.0 
0.999537 1.00808 0.0 
0.99554 1.01604 0.0 
0.998315 1.00797 0.0 
0.988885 1.0248 0.0 
1.00244 1.01485 0.0 
1.031 1.01808 0.0 
1.00041 1.0068 0.0 
0.99955 1.00557 0.0 
1.03196 1.0174 0.0 
1.02717 1.01757 0.0 
1.02561 1.01522 0.0 
1.00991 1.02977 0.0 
1.01707 1.04397 0.0 
0.99817 1.00588 0.0 
0.998765 1.00552 0.0 
0.997334 1.0078 0.0 
1.00153 1.00233 0.0 
1.00358 1.00747 0.0 
1.00372 1.00438 0.0 
1.00391 1.00454 0.0 
1.00178 1.00347 0.0 
1.00174 1.00529 0.0 
0.998598 1.01218 0.0 
1.00046 1.00345 0.0 
0.987978 0.995717 0.0 
1.0012 1.00196 0.0 
0.990665 1.01799 0.0 
1.00137 1.00414 0.0 
1.02515 1.02648 0.0 
1.02149 1.01805 0.0 
1.01977 1.02066 0.0 
1.02635 1.01537 0.0 
1.00913 1.01296 0.0 
0.99976 1.02574 0.0 
1.02056 1.02229 0.0 
1.00426 1.01583 0.0 
1.00822 0.945042 0.0 
1.02768 1.02512 0.0 
0.99727 1.00719 0.0 
1.00818 1.01376 0.0 
0.999371 1.01299 0.0 
1.02376 1.02243 0.0 
0.98573 0.997784 0.0 
1.02537 1.01518 0.0 
1.02655 1.01889 0.0 
1.02245 1.01448 0.0 
0.998774 1.01123 0.0 
1.01368 1.02558 0.0 
1.02488 1.02096 0.0 
1.00103 1.01658 0.0 
1.01662 1.01589 0.0 
1.00502 1.01994 0.0 
1.00407 1.02064 0.0 
1.00222 1.0168 0.0 
1.0007 1.0147 0.0 
1.03184 1.01685 0.0 
1.02805 1.02009 0.0 
1.01471 1.01467 0.0 
1.01921 1.01414 0.0 
1.02783 1.01733 0.0 
0.993831 1.01483 0.0 
0.998338 1.01287 0.0 
0.999037 1.01584 0.0 
0.990978 1.01627 0.0 
1.02462 1.02243 0.0 
1.02811 1.02147 0.0 
1.00427 1.00723 0.0 
1.01502 1.01994 0.0 
0.995971 1.0261 0.0 
1.01769 1.01834 0.0 
1.02431 1.02317 0.0 
1.02036 1.02145 0.0 
0.99616 1.01823 0.0 
1.00921 1.01812 0.0 
0.997645 1.01328 0.0 
0.997729 1.01424 0.0 
0.998548 1.01673 0.0 
1.02401 1.02549 0.0 
1.00629 1.0185 0.0 
1.01735 1.03657 0.0 
1.0215 1.01663 0.0 
0.998891 1.00693 0.0 
0.99657 1.01456 0.0 
1.00623 1.01517 0.0 
1.01675 1.01434 0.0 
1.02192 1.01868 0.0 
1.00059 1.0135 0.0 
1.00147 1.0133 0.0 
1.00495 1.01875 0.0 
1.02146 1.01912 0.0 
1.02819 1.01943 0.0 
1.03079 1.02078 0.0 
1.00532 1.01774 0.0 
1.02503 1.01588 0.0 
0.995775 0.997077 0.0 
1.00158 1.01481 0.0 
1.01953 1.01924 0.0 
1.02679 1.02026 0.0 
1.01771 1.02228 0.0 
1.03075 1.01603 0.0 
1.00348 1.02275 0.0 
1.01614 1.01417 0.0 
1.01543 1.01299 0.0 
1.02896 1.02121 0.0 
1.02318 1.01467 0.0 
1.02734 1.02267 0.0 
1.02115 1.01737 0.0 
1.02301 1.02505 0.0 
1.02185 1.03745 0.0 
1.00352 1.02433 0.0 
1.02335 1.02184 0.0 
0.996375 1.00983 0.0 
1.03164 1.01801 0.0 
1.00789 1.01491 0.0 
1.02862 1.02069 0.0 
1.01954 1.02124 0.0 
1.01709 1.01996 0.0 
1.03139 1.0167 0.0 
1.02201 1.0221 0.0 
0.996707 1.0378 0.0 
1.00729 0.991549 0.0 
1.0156 1.01558 0.0 
0.995293 1.03273 0.0 
1.03179 1.01614 0.0 
1.01208 1.01145 0.0 
0.995664 1.0113 0.0 
1.01935 1.01352 0.0 
1.01409 1.01525 0.0 
1.03228 1.01619 0.0 
1.02245 1.02299 0.0 
1.01494 1.01177 0.0 
1.01054 1.01559 0.0 
0.999608 0.996187 0.0 
1.02878 1.01999 0.0 
1.02958 1.02538 0.0 
1.02803 1.02077 0.0 
1.00717 1.01531 0.0 
1.0307 1.01674 0.0 
1.02773 1.01879 0.0 
1.00927 1.01076 0.0 
1.02653 1.01961 0.0 
1.02439 1.01496 0.0 
1.02714 1.01868 0.0 
1.01397 1.01992 0.0 
1.02293 1.01461 0.0 
[...]
<PointData>
  <DataArray type = "Float64" Name="Vitesse" NumberOfComponents="3" format="ascii">
1.05943 0.149285 0.0 
0 0 0.0 
0 0 0.0 
1.07055 0.143755 0.0 
0.904287 0.216555 0.0 
0 0 0.0 
0.872346 0.220569 0.0 
0.760471 0.395401 0.0 
0.784159 0.491055 0.0 
0.861094 0.373783 0.0 
1.12431 0.239112 0.0 
0.883078 0.205924 0.0 
0.820024 0.241948 0.0 
0.669093 0.489786 0.0 
0.958377 0.178328 0.0 
1.02509 0.165463 0.0 
1.18725 0.229089 0.0 
1.1612 0.286216 0.0 
0.854351 0.223762 0.0 
0.864818 0.204225 0.0 
0.848946 0.206319 0.0 
0.969937 0.174006 0.0 
0.966372 0.206964 0.0 
0 0 0.0 
0.938648 0.20187 0.0 
0.951598 0.167622 0.0 
0.765745 0.197833 0.0 
0.882531 0.438981 0.0 
0.92055 0.203861 0.0 
0.951605 0.210121 0.0 
0.952507 0.507656 0.0 
0.870679 -0.05957 0.0 
0.893803 0.234541 0.0 
0.747853 0.206567 0.0 
0.941513 0.222828 0.0 
0.685235 0.484711 0.0 
0.906398 0.232083 0.0 
0.991365 0.183127 0.0 
0.633328 0.437994 0.0 
0.583541 0.437037 0.0 
0.929808 0.184655 0.0 
0.943634 0.183189 0.0 
0.878777 0.231298 0.0 
0.895626 0.207438 0.0 
0.656785 0.368095 0.0 
0.888027 -0.0112166 0.0 
0.950927 0.467663 0.0 
0.489995 0.348978 0.0 
0.87729 0.464517 0.0 
0.888205 0.219479 0.0 
1.1421 0.392529 0.0 
1.03719 0.188989 0.0 
1.17938 0.27706 0.0 
0.94736 0.443997 0.0 
1.2225 0.284225 0.0 
1.08944 0.376133 0.0 
1.1244 0.353955 0.0 
0.763289 0.476409 0.0 
1.12797 0.31928 0.0 
0.383758 0.34216 0.0 
0.554984 0.307273 0.0 
0.530608 0.347501 0.0 
0.801851 0.304897 0.0 
0.767671 0.445359 0.0 
1.23066 0.29145 0.0 
0.783583 0.414377 0.0 
0.446428 0.361259 0.0 
0.921201 0.50835 0.0 
0.86737 0.323149 0.0 
0.840199 0.337088 0.0 
0.911593 0.499112 0.0 
0.649927 0.478494 0.0 
0.769701 0.347078 0.0 
0.781953 0.307339 0.0 
0.861411 0.516385 0.0 
0.800571 0.500216 0.0 
1.03182 0.461158 0.0 
0.757709 0.418871 0.0 
0.482138 0.28893 0.0 
0.395652 0.309211 0.0 
0.937678 0.505069 0.0 
0.447743 0.382906 0.0 
0 0 0.0 
0.791207 0.322956 0.0 
0.835465 0.517658 0.0 
1.23813 0.266138 0.0 
0.998936 0.377328 0.0 
0.600168 0.249692 0.0 
0.994789 0.457969 0.0 
0.691749 0.308936 0.0 
0.827781 0.437643 0.0 
0.380284 0.31997 0.0 
0.782135 0.516818 0.0 
1.07201 0.156611 0.0 
1.06957 0.346135 0.0 
0.742377 0.360678 0.0 
1.03365 0.424114 0.0 
1.20776 0.31077 0.0 
1.12238 0.412022 0.0 
0.70063 0.497004 0.0 
0.767534 0.323424 0.0 
1.15295 0.325591 0.0 
0.897292 -0.0758513 0.0 
0.93821 0.361643 0.0 
0.74582 -0.00372341 0.0 
0.778508 0.226015 0.0 
1.10773 0.417913 0.0 
1.10405 0.239987 0.0 
0.790414 0.212527 0.0 
0.772813 0.265098 0.0 
1.02118 0.0500832 0.0 
0.842937 0.41419 0.0 
0.582887 0.013792 0.0 
0.196256 0.209894 0.0 
0.887503 0.416142 0.0 
1.01162 0.469612 0.0 
1.12395 0.268241 0.0 
0.762487 0.2817 0.0 
1.07263 0.444181 0.0 
0.994202 0.274007 0.0 
0.741205 0.380133 0.0 
0 0 0.0 
0.787741 0.245077 0.0 
0.590104 0.285223 0.0 
0.383764 0.0591482 0.0 
0.784717 0.339067 0.0 
0.620062 0.44018 0.0 
0 0 0.0 
0 0 0.0 
0.756921 -0.0693754 0.0 
0.902179 0.512172 0.0 
0.972714 0.456457 0.0 
1.19769 0.308725 0.0 
0.212243 0.0662383 0.0 
0.724181 0.232775 0.0 
1.04612 0.476405 0.0 
0 0 0.0 
0.900467 0.316914 0.0 
0.36976 0.328826 0.0 
0.473682 0.108145 0.0 
0.223175 0.193626 0.0 
0.244133 0.197341 0.0 
0.789235 0.511796 0.0 
0.757501 0.512186 0.0 
0 0 0.0 
0.743775 0.507807 0.0 
0.872606 0.488606 0.0 
0.176707 0.175484 0.0 
0.81281 0.201958 0.0 
0.822716 0.259245 0.0 
0.926036 0.428747 0.0 
0.867649 0.00742208 0.0 
1.1392 0.30099 0.0 
0.856853 0.440763 0.0 
0.825928 0.293129 0.0 
0.872949 0.361006 0.0 
0.451899 0.114904 0.0 
1.09003 0.415073 0.0 
0.739931 0.244506 0.0 
0.621184 0.271536 0.0 
0.985587 0.487721 0.0 
1.05004 0.190403 0.0 
0 0 0.0 
0.878165 0.519929 0.0 
0.513757 0.392424 0.0 
0.381525 0.330105 0.0 
0.806919 0.252765 0.0 
0.906141 0.198427 0.0 
0.91804 0.366872 0.0 
1.13932 0.374233 0.0 
1.12767 0.393305 0.0 
0.907247 0.142832 0.0 
0.610598 0.449892 0.0 
0.824452 0.520186 0.0 
0.505621 0.375473 0.0 
0.838213 0.198152 0.0 
0.399493 0.306059 0.0 
0.879556 0.00856179 0.0 
0.724764 0.493628 0.0 
0.607549 0.458389 0.0 
0.807757 0.323159 0.0 
0 0 0.0 
1.0409 0.227925 0.0 
0.763248 0.242654 0.0 
0.963191 0.122921 0.0 
0.728339 0.212161 0.0 
0.821098 0.205871 0.0 
0.810961 0.518859 0.0 
0.98897 0.418397 0.0 
0.762566 0.218207 0.0 
0.874551 -0.103091 0.0 
0.555307 0.406042 0.0 
1.01081 0.431982 0.0 
0.805894 0.217094 0.0 
0.744302 0.226288 0.0 
0.911914 0.483121 0.0 
0.868265 0.274789 0.0 
0.774305 0.50649 0.0 
0.839006 0.260631 0.0 
0.488548 0.40589 0.0 
0.654314 0.263502 0.0 
0.844319 0.368263 0.0 
0.800169 0.397359 0.0 
1.10321 0.295651 0.0 
0.71796 0.497642 0.0 
1.07065 0.21932 0.0 
1.13162 0.375812 0.0 
0.659448 0.287553 0.0 
0.804693 0.197722 0.0 
1.03051 0.403833 0.0 
1.04289 0.205925 0.0 
0.274155 0.263299 0.0 
0.631647 0.455522 0.0 
0.714804 0.477833 0.0 
0.77605 0.210653 0.0 
0 0 0.0 
0.793045 0.22805 0.0 
1.1461 0.350696 0.0 
0.744465 0.265845 0.0 
0.907634 0.415483 0.0 
0.982763 0.383269 0.0 
0.880947 0.190703 0.0 
1.05496 0.217345 0.0 
1.16906 0.374449 0.0 
0.505737 0.378904 0.0 
0.738565 0.483858 0.0 
0.70529 0.451415 0.0 
0.694082 0.471954 0.0 
0.833509 0.354057 0.0 
0.715179 0.494997 0.0 
0.594679 0.358184 0.0 
0.293889 0.22891 0.0 
0.781958 0.385071 0.0 
0.525191 0.161264 0.0 
0.609612 0.451292 0.0 
0.851546 0.520462 0.0 
0.852969 0.00845867 0.0 
0.627213 0.317776 0.0 
0.506733 0.41172 0.0 
0.227382 0.142613 0.0 
0.709137 0.344151 0.0 
1.07661 0.39548 0.0 
0.419411 0.34207 0.0 
0.718317 0.27545 0.0 
0.921256 -0.0636167 0.0 
0.782602 0.513239 0.0 
0.697359 0.286066 0.0 
0 0 0.0 
0 0 0.0 
1.09428 0.327705 0.0 
0.993492 0.496768 0.0 
0.695801 0.391247 0.0 
0.963829 0.435983 0.0 
0.971259 0.404513 0.0 
0.870338 0.395342 0.0 
0.913857 0.383239 0.0 
0.827155 0.372924 0.0 
0.68542 0.420275 0.0 
0.937191 0.381994 0.0 
1.0069 0.39362 0.0 
0.982454 0.196708 0.0 
0.895008 0.36941 0.0 
0.887829 0.333407 0.0 
0.880345 0.287889 0.0 
0.717721 -0.054189 0.0 
0.45104 0.325934 0.0 
0.771629 0.0584721 0.0 
1.11439 0.374889 0.0 
0.862719 0.291886 0.0 
0.990212 0.471705 0.0 
0.820874 0.224533 0.0 
0.230118 0.049298 0.0 
0.89491 0.143373 0.0 
0.832653 0.246621 0.0 
0.84783 0.279555 0.0 
0.858905 0.307621 0.0 
0.891233 0.501772 0.0 
1.15173 0.34711 0.0 
0.903348 0.351088 0.0 
1.099 0.197809 0.0 
0.988529 0.399921 0.0 
0.809727 0.417025 0.0 
1.0605 0.414362 0.0 
0.862916 0.0371151 0.0 
0.677859 0.274786 0.0 
0.976536 0.281413 0.0 
0.608766 0.165071 0.0 
0.833209 0.492438 0.0 
1.10516 0.39821 0.0 
0.963173 0.163254 0.0 
0.814212 0.355511 0.0 
1.11029 0.439517 0.0 
1.24063 0.254752 0.0 
1.09272 0.454448 0.0 
0.842029 -0.0356554 0.0 
0.88121 0.512394 0.0 
0.856732 0.259341 0.0 
0.864928 0.455066 0.0 
1.08081 0.367221 0.0 
0.752717 0.345014 0.0 
1.17155 0.249265 0.0 
0.748954 0.394323 0.0 
1.18832 0.358066 0.0 
0.960911 0.247619 0.0 
1.05962 0.274077 0.0 
0.846403 0.319132 0.0 
0.406115 0.117056 0.0 
0.805675 0.234894 0.0 
0.875795 0.0335967 0.0 
0.619042 0.341007 0.0 
0.924686 0.404187 0.0 
1.0713 0.236612 0.0 
0.889076 0.00688015 0.0 
0.68047 0.250487 0.0 
0.927604 0.293259 0.0 
0.668989 0.393404 0.0 
0.844287 0.299176 0.0 
0.668776 0.351127 0.0 
0.917263 0.22301 0.0 
0.866065 0.418125 0.0 
0.486539 0.0763812 0.0 
0.615246 0.424345 0.0 
0.558506 0.38087 0.0 
0.290932 0.0383132 0.0 
0.566166 0.119511 0.0 
0 0 0.0 
1.06324 0.306371 0.0 
1.10658 0.2121 0.0 
0.592599 0.324753 0.0 
0.566705 0.34427 0.0 
0.670962 0.319065 0.0 
0 0 0.0 
0.603356 0.461345 0.0 
0 0 0.0 
0 0 0.0 
0.20913 0.202455 0.0 
0.483293 0.40762 0.0 
0.782887 0.361217 0.0 
0.363373 0.330854 0.0 
0.774945 0.0329074 0.0 
0 0 0.0 
0.864481 0.241604 0.0 
0.373413 0.342674 0.0 
1.21378 0.295671 0.0 
0.983467 0.312536 0.0 
1.17047 0.386781 0.0 
0 0 0.0 
0.892154 0.508875 0.0 
0.963871 0.295589 0.0 
1.18782 0.367074 0.0 
0.90544 0.435042 0.0 
0.903501 -0.0467627 0.0 
1.23382 0.28239 0.0 
0.652883 0.31069 0.0 
0.928524 0.514871 0.0 
0.803806 0.374519 0.0 
1.20741 0.333335 0.0 
0.783897 0.0598717 0.0 
0 0 0.0 
0.876307 0.207591 0.0 
0 0 0.0 
0.761393 0.367748 0.0 
1.09862 0.35246 0.0 
1.15705 0.309063 0.0 
0.880187 0.377847 0.0 
0.916323 0.376796 0.0 
0.964557 0.389719 0.0 
0.959905 0.372673 0.0 
0.894842 0.393348 0.0 
0.846229 0.388574 0.0 
0.166153 0.0199099 0.0 
0.996271 0.221717 0.0 
0.846912 0.386665 0.0 
0.245223 0.0847901 0.0 
0.468035 0.0912882 0.0 
0.826748 0.276154 0.0 
0.796957 0.353447 0.0 
0.853805 0.352453 0.0 
0.846881 0.243219 0.0 
1.20851 0.322473 0.0 
1.13668 0.258873 0.0 
0.526342 0.408248 0.0 
1.11724 0.429623 0.0 
0.94608 0.267579 0.0 
1.10431 0.414515 0.0 
1.21558 0.324584 0.0 
1.18256 0.375967 0.0 
0.874309 0.301658 0.0 
1.01179 0.451149 0.0 
0.803092 0.338793 0.0 
0.821165 0.337719 0.0 
0.864615 0.340134 0.0 
1.21019 0.311598 0.0 
0.967835 0.420813 0.0 
1.11807 0.252032 0.0 
0.730423 0.229686 0.0 
0.627257 0.365227 0.0 
0.823554 0.317412 0.0 
0.92661 0.473673 0.0 
0.599888 0.248056 0.0 
1.04087 0.323836 0.0 
0.822154 0.396396 0.0 
0.82587 0.415695 0.0 
0.951654 0.40387 0.0 
1.09293 0.347557 0.0 
0.892841 0.192417 0.0 
0.993607 0.190915 0.0 
0.945565 0.421639 0.0 
0.24787 0.0551726 0.0 
0.67905 -0.0717618 0.0 
0.85633 0.403465 0.0 
1.13193 0.389547 0.0 
1.05871 0.255204 0.0 
1.15574 0.386221 0.0 
0 0 0.0 
0.971545 0.345761 0.0 
0.619021 0.264971 0.0 
0.371343 0.167252 0.0 
1.09475 0.236947 0.0 
0 0 0.0 
1.20478 0.285935 0.0 
0.896958 0.290073 0.0 
1.20391 0.322721 0.0 
1.14318 0.236812 0.0 
0.983038 0.33141 0.0 
1.19789 0.339132 0.0 
0.73136 0.308328 0.0 
0.44466 0.0652714 0.0 
0.950974 0.497045 0.0 
1.0518 0.229437 0.0 
1.17467 0.385194 0.0 
1.14264 0.417846 0.0 
0.145821 0.0179693 0.0 
1.19758 0.354603 0.0 
1.00361 0.221179 0.0 
0.879632 -0.0657222 0.0 
0.927031 0.400646 0.0 
0.979594 0.236236 0.0 
0 0 0.0 
0.401341 0.21805 0.0 
0.765316 0.299469 0.0 
0 0 0.0 
0.952575 0.439247 0.0 
0 0 0.0 
1.20433 0.344481 0.0 
0 0 0.0 
1.0024 0.498042 0.0 
0.783467 -0.200364 0.0 
0.956056 0.202994 0.0 
1.23944 0.263185 0.0 
1.07637 0.243018 0.0 
0.945103 0.482901 0.0 
0.178532 0.0230886 0.0 
0.800069 0.174186 0.0 
0.612298 0.378513 0.0 
0.987414 0.238503 0.0 
0 0 0.0 
0.807993 0.181713 0.0 
1.10125 0.432586 0.0 
0 0 0.0 
0.651186 0.338301 0.0 
1.19123 0.326399 0.0 
1.02475 0.206389 0.0 
1.09612 0.255247 0.0 
0.507972 0.346724 0.0 
0.86486 0.24282 0.0 
0 0 0.0 
1.00118 0.49238 0.0 
0.599907 0.171143 0.0 
0 0 0.0 
0 0 0.0 
0.898136 0.518139 0.0 
0.875546 -0.0001494 0.0 
0.761089 0.179876 0.0 
1.10619 0.446961 0.0 
0.789032 0.337003 0.0 
0.963605 0.485899 0.0 
0.390417 0.078074 0.0 
0 0 0.0 
0.934425 0.179215 0.0 
0.665787 0.140926 0.0 
0.286794 0.043994 0.0 
0.926612 0.451701 0.0 
1.00158 0.33886 0.0 
0.931539 0.26222 0.0 
0.167053 0.0265809 0.0 
0.893804 0.254675 0.0 
0.94793 0.512212 0.0 
1.02845 0.237929 0.0 
1.18926 0.314979 0.0 
0.545832 0.0999692 0.0 
1.09786 0.389347 0.0 
1.07411 0.461324 0.0 
0.553382 0.437526 0.0 
1.15155 0.318622 0.0 
1.11946 0.29707 0.0 
0.980639 0.252694 0.0 
1.21936 0.245192 0.0 
0.97285 0.474428 0.0 
0 0 0.0 
1.17679 0.322583 0.0 
0.805583 0.0731817 0.0 
1.16752 0.237001 0.0 
0 0 0.0 
1.05534 0.355824 0.0 
0.791297 0.47469 0.0 
1.00972 0.412328 0.0 
0.730676 0.287042 0.0 
1.05719 0.435685 0.0 
1.17572 0.278927 0.0 
0.989451 0.348555 0.0 
1.00049 0.205978 0.0 
1.14605 0.271026 0.0 
0.713985 0.416041 0.0 
0.805494 0.509239 0.0 
0.916288 0.284073 0.0 
1.15558 0.36129 0.0 
0.866894 0.34683 0.0 
1.16674 0.385808 0.0 
0.319048 0.193816 0.0 
1.0999 0.30489 0.0 
0.99811 0.193459 0.0 
1.17086 0.361395 0.0 
1.01445 0.211173 0.0 
0.882839 0.0669917 0.0 
1.07115 0.271609 0.0 
1.17425 0.377279 0.0 
0.2611 0.131967 0.0 
1.06115 0.200875 0.0 
0 0 0.0 
0.750834 0.0374027 0.0 
1.12504 0.400346 0.0 
0.578866 0.324235 0.0 
0.592957 0.353192 0.0 
0 0 0.0 
0.856629 0.377342 0.0 
0 0 0.0 
0.630746 0.114816 0.0 
1.22217 0.311732 0.0 
0.964058 0.263818 0.0 
1.00846 0.0559124 0.0 
0 0 0.0 
0.882737 0.216776 0.0 
0.914595 0.334263 0.0 
1.10149 0.445048 0.0 
1.05433 0.454054 0.0 
0.912753 -0.0750465 0.0 
0.672463 0.466783 0.0 
0.713133 0.297522 0.0 
0.971825 0.499855 0.0 
0.996952 0.258134 0.0 
0.225447 0.0395168 0.0 
1.21946 0.316107 0.0 
1.2004 0.241173 0.0 
0.934387 0.279155 0.0 
0.940401 0.216067 0.0 
0.813576 0.438554 0.0 
0.442343 0.321775 0.0 
0.614184 0.158554 0.0 
0.791272 0.467932 0.0 
1.06263 0.326952 0.0 
1.02954 0.247134 0.0 
1.09957 0.430756 0.0 
0.613142 0.424947 0.0 
0.981838 0.26626 0.0 
0.881253 0.244111 0.0 
0.844349 0.510901 0.0 
0.571106 0.12643 0.0 
1.08622 0.429516 0.0 
0.414574 0.267185 0.0 
0.626127 0.466089 0.0 
0.954578 0.280123 0.0 
1.05784 0.28651 0.0 
1.05507 0.281027 0.0 
0 0 0.0 
1.19677 0.354666 0.0 
0.874699 0.519752 0.0 
0.557662 0.167361 0.0 
0.9065 0.0723206 0.0 
0.863739 0.443935 0.0 
1.1588 0.402998 0.0 
0.224422 0.163438 0.0 
0.277478 0.119268 0.0 
1.06045 0.165658 0.0 
0.95604 0.455569 0.0 
0.914427 0.256023 0.0 
0.724671 0.364017 0.0 
1.00359 0.435542 0.0 
0.776907 0.319091 0.0 
1.0125 0.296685 0.0 
1.15798 0.385612 0.0 
1.1188 0.435418 0.0 
0 0 0.0 
0 0 0.0 
1.01571 0.48208 0.0 
0.821607 0.510877 0.0 
0.431179 0.24452 0.0 
0.477262 0.296233 0.0 
0.243204 0.0812586 0.0 
1.08596 0.264321 0.0 
1.00462 0.34242 0.0 
0.693074 0.418299 0.0 
0.37653 0.0792577 0.0 
0.849767 0.520346 0.0 
1.07357 0.189271 0.0 
0.797501 0.385469 0.0 
1.02643 0.201124 0.0 
0.941688 -0.0448043 0.0 
1.01156 0.494378 0.0 
0.791334 0.211128 0.0 
0 0 0.0 
0.650687 0.450833 0.0 
1.02609 0.231768 0.0 
0.873578 0.319053 0.0 
0.915756 0.516244 0.0 
0.928812 0.493951 0.0 
0 0 0.0 
1.01121 0.197226 0.0 
0.552149 0.0932078 0.0 
1.17208 0.345483 0.0 
1.13756 0.281907 0.0 
0 0 0.0 
0.256716 0.146333 0.0 
1.12093 0.27214 0.0 
1.10424 0.403541 0.0 
0.29854 0.148576 0.0 
0.298381 0.0889448 0.0 
0.971268 0.225365 0.0 
0.904973 0.270764 0.0 
1.06345 0.324197 0.0 
0.997454 0.485419 0.0 
0.617426 0.296514 0.0 
1.02117 0.377718 0.0 
1.11677 0.438572 0.0 
0.947036 0.0466263 0.0 
0.842183 0.420167 0.0 
0.210251 0.0425772 0.0 
0.502888 0.180856 0.0 
0.814321 0.486555 0.0 
0.766254 0.0094159 0.0 
0.963508 0.246935 0.0 
0.745303 0.381866 0.0 
0 0 0.0 
1.11443 0.333953 0.0 
1.05533 0.424893 0.0 
0.903494 0.45839 0.0 
0.94452 0.502619 0.0 
1.19579 0.328912 0.0 
0 0 0.0 
0.81803 0.502852 0.0 
0.255112 0.104504 0.0 
0.943789 0.294526 0.0 
0.609957 0.299885 0.0 
0.388948 0.310332 0.0 
1.07612 0.463208 0.0 
0.896542 -0.00192653 0.0 
0.898419 0.286324 0.0 
0.890958 0.301446 0.0 
0.60002 0.317906 0.0 
1.19131 0.364298 0.0 
1.14687 0.413523 0.0 
1.18001 0.365613 0.0 
0.936912 0.342968 0.0 
0.301123 0.111927 0.0 
0.995513 0.231482 0.0 
1.01215 0.468024 0.0 
0.876809 0.414569 0.0 
1.01438 0.335204 0.0 
1.10412 0.275737 0.0 
1.02077 0.490253 0.0 
0.682465 0.170753 0.0 
1.00188 0.48116 0.0 
0.979289 0.244003 0.0 
0.580409 0.264452 0.0 
0.203199 0.0389153 0.0 
0.903528 0.499699 0.0 
0.467232 0.156504 0.0 
1.19937 0.342961 0.0 
0.247082 0.11087 0.0 
0 0 0.0 
0 0 0.0 
1.13443 0.423218 0.0 
0.402881 0.316523 0.0 
1.10334 0.258028 0.0 
1.08311 0.450942 0.0 
1.13405 0.36549 0.0 
1.1593 0.298876 0.0 
1.05847 0.432421 0.0 
0.388995 0.105762 0.0 
1.14882 0.401331 0.0 
1.17668 0.357592 0.0 
0.882394 -0.0696812 0.0 
1.01425 0.264686 0.0 
0.980274 0.36787 0.0 
0.410711 0.168719 0.0 
0.940294 0.326095 0.0 
0.320787 0.307753 0.0 
1.09415 0.45266 0.0 
0.367722 0.258972 0.0 
1.13272 0.426474 0.0 
0.80746 0.282916 0.0 
0.290992 0.0691945 0.0 
0.916413 0.239163 0.0 
1.22042 0.295326 0.0 
0.720941 0.446458 0.0 
0.934587 0.324294 0.0 
0.750427 0.267038 0.0 
0.595198 0.226551 0.0 
1.03244 0.353144 0.0 
0 0 0.0 
0.824094 0.279226 0.0 
0.72305 0.355825 0.0 
1.11498 0.281782 0.0 
0.683969 0.335015 0.0 
0.81224 0.241306 0.0 
1.04528 0.467527 0.0 
0.851164 0.299753 0.0 
1.20432 0.252323 0.0 
1.08274 0.461327 0.0 
1.20362 0.34348 0.0 
1.02988 0.477454 0.0 
1.04597 0.248203 0.0 
0.991392 0.474018 0.0 
0 0 0.0 
0.637124 0.291718 0.0 
1.03968 0.293495 0.0 
1.0729 0.454593 0.0 
1.06007 0.472879 0.0 
0.67391 0.442691 0.0 
1.19131 0.350045 0.0 
1.04799 0.31715 0.0 
0.957403 0.0691565 0.0 
1.11587 0.424576 0.0 
0 0 0.0 
0.570222 0.450921 0.0 
0.979652 0.363441 0.0 
1.00903 0.0650362 0.0 
0.835096 0.0692509 0.0 
1.03062 0.486599 0.0 
0.17962 0.0274564 0.0 
0.71062 -8.55809e-05 0.0 
1.00575 0.27227 0.0 
1.05072 0.477733 0.0 
0.22079 0.204746 0.0 
1.06104 0.44164 0.0 
0.297547 0.144586 0.0 
0.738326 0.405264 0.0 
0.703934 -0.0366125 0.0 
0.890753 0.433026 0.0 
0.860593 0.509475 0.0 
0.715544 0.160399 0.0 
1.102 0.229886 0.0 
1.05947 0.38424 0.0 
0.457613 0.302038 0.0 
0.354184 0.13054 0.0 
1.14534 0.331194 0.0 
0.879499 0.478914 0.0 
1.07799 0.315864 0.0 
0.688523 0.235661 0.0 
0.810464 0.453397 0.0 
0.333515 0.13074 0.0 
0.628149 0.412978 0.0 
0 0 0.0 
1.07057 0.403805 0.0 
0.240155 0.176533 0.0 
1.11595 0.346084 0.0 
1.19057 0.340203 0.0 
0.672017 0.21878 0.0 
0 0 0.0 
0 0 0.0 
0.879162 -0.0797046 0.0 
0.572398 0.226701 0.0 
0.797189 0.306013 0.0 
1.07307 0.33967 0.0 
0.877569 0.330757 0.0 
0.713435 0.215153 0.0 
1.02971 0.295558 0.0 
0 0 0.0 
0.999625 0.361733 0.0 
1.10161 0.31723 0.0 
0.63378 0.321232 0.0 
0.83618 0.488395 0.0 
1.13704 0.252706 0.0 
1.21415 0.326047 0.0 
0.92244 0.308735 0.0 
0.663276 0.157342 0.0 
1.17739 0.378622 0.0 
0.724664 0.483579 0.0 
0.731113 0.478439 0.0 
1.0829 0.454255 0.0 
0.783763 0.287012 0.0 
1.04484 0.300763 0.0 
0.551738 0.440793 0.0 
0.72463 0.110817 0.0 
0.934228 0.362857 0.0 
1.06727 0.470006 0.0 
1.15803 0.366026 0.0 
1.22984 0.288979 0.0 
1.08638 0.229973 0.0 
0.999468 0.309545 0.0 
0.603663 0.350444 0.0 
1.02804 0.482091 0.0 
1.08555 0.247351 0.0 
0.654477 -0.0935573 0.0 
1.03662 0.440986 0.0 
0.956761 0.353324 0.0 
0.712492 0.501478 0.0 
1.0762 0.359954 0.0 
0.375484 0.0629322 0.0 
1.06321 0.313121 0.0 
1.02976 0.215443 0.0 
0.600768 0.211568 0.0 
0.702261 0.316669 0.0 
1.17279 0.367269 0.0 
0.321013 0.0450956 0.0 
0 0 0.0 
1.18012 0.33562 0.0 
0.882064 -0.0750081 0.0 
1.2173 0.303369 0.0 
1.04455 0.335455 0.0 
1.01035 0.452208 0.0 
1.21989 0.309724 0.0 
0 0 0.0 
0.418368 0.144413 0.0 
0.969625 0.50855 0.0 
1.01923 0.336753 0.0 
1.15948 0.305375 0.0 
0 0 0.0 
0.737255 0.433732 0.0 
0.9382 -0.0547186 0.0 
0.685357 0.377279 0.0 
1.09379 0.361782 0.0 
0.950425 0.311117 0.0 
0.21629 0.120979 0.0 
0.867308 -0.0472736 0.0 
0 0 0.0 
0.895921 0.376322 0.0 
0.577489 0.0805766 0.0 
0.435686 0.139321 0.0 
0.917519 0.31706 0.0 
0.653739 0.475414 0.0 
1.0058 0.420219 0.0 
0.935008 0.513027 0.0 
0.920644 0.350845 0.0 
1.02078 0.176012 0.0 
1.15149 0.408614 0.0 
1.07393 0.291451 0.0 
0.824524 -0.208711 0.0 
0 0 0.0 
0.782042 0.506302 0.0 
1.04223 0.482989 0.0 
0.974756 0.279175 0.0 
0.615834 0.101516 0.0 
0.271152 0.178306 0.0 
1.08907 0.212383 0.0 
1.1198 0.303701 0.0 
1.14619 0.267263 0.0 
0.920329 0.270775 0.0 
0.504818 0.233436 0.0 
0 0 0.0 
0.739058 0.462868 0.0 
0.940829 0.466117 0.0 
1.06794 0.268344 0.0 
0.853388 -0.122683 0.0 
0.709287 0.32031 0.0 
0.650429 0.43808 0.0 
0.815594 0.461425 0.0 
0 0 0.0 
1.1122 0.219322 0.0 
1.11349 0.226795 0.0 
0.999997 0.325065 0.0 
1.17629 0.316803 0.0 
1.13293 0.413507 0.0 
0.237732 0.0755799 0.0 
0 0 0.0 
1.03353 0.443623 0.0 
0.983588 0.394287 0.0 
0.720256 0.406144 0.0 
1.15591 0.395932 0.0 
0.255255 0.195466 0.0 
0.880124 -0.101996 0.0 
1.12095 0.214149 0.0 
1.04887 0.467154 0.0 
0.970426 0.485206 0.0 
1.09332 0.310221 0.0 
1.04495 0.474807 0.0 
0.571963 0.189651 0.0 
0.530498 0.275015 0.0 
0 0 0.0 
0.727657 0.268376 0.0 
0.683962 0.363626 0.0 
1.15958 0.396625 0.0 
0.882057 -0.0791666 0.0 
0.96807 0.347862 0.0 
0.542533 0.0811041 0.0 
0.637719 0.394444 0.0 
0.758724 0.215134 0.0 
1.12142 0.335412 0.0 
1.08772 0.298556 0.0 
0.756829 0.355274 0.0 
0 0 0.0 
0.732383 0.289679 0.0 
0.947131 -0.0281669 0.0 
0.928901 0.24713 0.0 
0.859871 0.267132 0.0 
1.08221 0.420014 0.0 
1.0386 0.162248 0.0 
0.999367 0.298673 0.0 
1.02398 0.19101 0.0 
1.08674 0.197368 0.0 
1.09083 0.377935 0.0 
1.05115 0.45679 0.0 
0.886834 0.272048 0.0 
0.942651 0.420033 0.0 
0 0 0.0 
0 0 0.0 
0.526915 0.261036 0.0 
1.01272 0.246499 0.0 
1.14176 0.40262 0.0 
0.945852 0.252655 0.0 
0.743363 0.326547 0.0 
1.06029 0.465604 0.0 