<VTKFile type="UnstructuredGrid" version="0.1" byte_order="LittleEndian">
  <UnstructuredGrid>
    <Piece NumberOfPoints="16614" NumberOfCells="32741">
      <Points>
        <DataArray type = "Float64" NumberOfComponents="3" format="ascii">
1.46773 0.938353 0.0 
1.44003 0.979368 0.0 
1.54797 0.964513 0.0 
2.65569 0.962231 0.0 
1.44385 0.980375 0.0 
3.36514 0.979606 0.0 
2.77821 0.988024 0.0 
1.60413 0.989431 0.0 
1.49889 0.970475 0.0 
1.57137 0.954772 0.0 
1.69756 0.979742 0.0 
2.52756 0.968625 0.0 
1.78236 0.979965 0.0 
3.5 0.872745 0.0 
3.5 0.882692 0.0 
2.3364 0.961662 0.0 
2.71243 0.964112 0.0 
3.06143 0.989215 0.0 
2.57079 0.973589 0.0 
2.63801 0.980211 0.0 
2.56289 0.960163 0.0 
1.51735 0.966964 0.0 
2.25923 0.96098 0.0 
1.29152 0.981909 0.0 
1.39232 0.880322 0.0 
2.72194 0.97715 0.0 
2.02285 0.986264 0.0 
3.23599 0.903237 0.0 
1.55482 0.967976 0.0 
3.27435 0.975538 0.0 
3.36947 0.954939 0.0 
1.55585 0.946776 0.0 
1.87075 0.969872 0.0 
2.18903 0.962163 0.0 
2.27765 0.95544 0.0 
2.9704 0.976882 0.0 
2.13589 0.960679 0.0 
1.48961 0.941411 0.0 
3.0933 0.975658 0.0 
2.86629 0.984866 0.0 
2.62858 0.966345 0.0 
2.75897 0.979892 0.0 
1.3764 0.962884 0.0 
3.14814 0.986063 0.0 
1.56639 0.951665 0.0 
1.47954 0.978497 0.0 
3.40441 0.988069 0.0 
1.47711 0.974585 0.0 
1.5523 0.963125 0.0 
1.57609 0.957627 0.0 
2.84327 0.977412 0.0 
2.97309 0.94004 0.0 
1.53741 0.963348 0.0 
1.51731 0.969668 0.0 
3.1524 0.953734 0.0 
3.37354 0.991572 0.0 
3.5 0.964363 0.0 
3.5 0.991288 0.0 
3.13374 0.883078 0.0 
1.91322 0.981365 0.0 
2.80098 0.928842 0.0 
3.5 0.957926 0.0 
1.5154 0.970733 0.0 
1.81288 0.989901 0.0 
3.2143 0.990228 0.0 
2.60427 0.976699 0.0 
1.45887 0.97638 0.0 
1.50857 0.969734 0.0 
3.2948 0.988152 0.0 
3.02988 0.98299 0.0 
3.34501 0.984306 0.0 
1.56168 0.960243 0.0 
1.53365 0.965567 0.0 
1.48533 0.973314 0.0 
3.30462 0.950343 0.0 
1.35344 0.954815 0.0 
2.81213 0.963246 0.0 
1.49366 0.971851 0.0 
3.5 0.986166 0.0 
3.07545 0.97883 0.0 
3.12405 0.942238 0.0 
1.56201 0.962172 0.0 
1.54286 0.96629 0.0 
1.56396 0.96398 0.0 
3.19135 0.919671 0.0 
2.20584 0.958543 0.0 
1.87693 0.98986 0.0 
1.55153 0.965295 0.0 
3.02591 0.963496 0.0 
1.53857 0.968474 0.0 
3.29747 0.960406 0.0 
2.3419 0.952609 0.0 
3.28465 0.994183 0.0 
2.53822 0.946491 0.0 
3.1113 0.948874 0.0 
1.44976 0.93674 0.0 
3.5 0.943213 0.0 
2.97299 0.945245 0.0 
2.29149 0.95861 0.0 
1.64941 0.931439 0.0 
3.22563 0.895108 0.0 
3.5 0.935956 0.0 
1.52558 0.966261 0.0 
1.52613 0.97103 0.0 
3.34186 0.921883 0.0 
1.88158 0.964804 0.0 
1.53982 0.965032 0.0 
3.5 0.928701 0.0 
2.97004 0.967532 0.0 
1.53313 0.969152 0.0 
1.51845 0.973172 0.0 
2.91498 0.974581 0.0 
1.70562 0.992056 0.0 
2.60197 0.942831 0.0 
3.30323 0.93811 0.0 
2.91393 0.971317 0.0 
2.04236 0.965115 0.0 
1.5697 0.964652 0.0 
3.5 0.914229 0.0 
2.33943 0.949096 0.0 
2.85558 0.968722 0.0 
3.26864 0.944555 0.0 
3.20633 0.981222 0.0 
1.6055 0.981282 0.0 
2.48046 0.920732 0.0 
1.58076 0.962615 0.0 
1.58865 0.97933 0.0 
3.03957 0.972847 0.0 
1.49308 0.973185 0.0 
1.98145 0.987881 0.0 
2.75215 0.98248 0.0 
3.32555 0.964549 0.0 
2.45863 0.933055 0.0 
3.12653 0.965788 0.0 
3.3308 0.969379 0.0 
1.51805 0.971971 0.0 
1.51335 0.993266 0.0 
1.59226 0.95727 0.0 
1.59567 0.980166 0.0 
1.57552 0.99094 0.0 
1.61786 0.968438 0.0 
3.17051 0.961128 0.0 
1.83969 0.966864 0.0 
1.96724 0.967135 0.0 
2.9542 0.918203 0.0 
1.52519 0.970016 0.0 
2.58581 0.938901 0.0 
3.5 0.981044 0.0 
2.77576 0.971407 0.0 
1.50973 0.971845 0.0 
1.5672 0.984038 0.0 
1.58661 0.989945 0.0 
1.56558 0.9724 0.0 
1.53363 0.970127 0.0 
3.5 0.970799 0.0 
1.50954 0.974181 0.0 
3.18039 0.972551 0.0 
3.5 0.950569 0.0 
2.89268 0.911556 0.0 
2.98867 0.986331 0.0 
1.49479 0.974255 0.0 
1.8925 0.984602 0.0 
3.12324 0.992186 0.0 
1.97385 0.969723 0.0 
1.56747 0.966407 0.0 
1.9269 0.963221 0.0 
1.59454 0.954294 0.0 
1.82387 0.97464 0.0 
1.33262 0.974639 0.0 
2.63338 0.987569 0.0 
1.50261 0.973853 0.0 
2.55219 0.964707 0.0 
1.58572 0.959516 0.0 
3.35315 0.927242 0.0 
1.62854 0.928884 0.0 
1.48582 0.974598 0.0 
1.50117 0.972537 0.0 
2.72774 0.985353 0.0 
1.58359 0.955725 0.0 
1.58311 0.964392 0.0 
1.36138 0.966914 0.0 
1.5652 0.968146 0.0 
1.37118 0.96377 0.0 
1.55301 0.967172 0.0 
1.57585 0.961197 0.0 
1.35414 0.969054 0.0 
1.4528 0.987531 0.0 
1.34498 0.77871 0.0 
1.54424 0.969428 0.0 
2.91649 0.988594 0.0 
3.1724 0.96915 0.0 
1.40979 0.846468 0.0 
1.89515 0.987623 0.0 
2.21822 0.966749 0.0 
3.0885 0.958539 0.0 
2.16996 0.96528 0.0 
1.5975 0.960991 0.0 
2.50368 0.976166 0.0 
2.11182 0 0.0 
2.41427 0.977187 0.0 
2.60218 0.970064 0.0 
2.97512 0.924603 0.0 
1.51903 0.93839 0.0 
2.8904 0.965314 0.0 
1.45504 0.800062 0.0 
3.5 0.921455 0.0 
2.62487 0.984018 0.0 
2.26874 0.911866 0.0 
1.55749 0.975935 0.0 
1.54551 0.975826 0.0 
1.5134 0.994347 0.0 
2.05484 0.908576 0.0 
1.8369 0.987914 0.0 
2.81939 0.933459 0.0 
1.42065 0.932059 0.0 
2.89702 0.980543 0.0 
1.54693 0.970708 0.0 
1.74109 0.891779 0.0 
1.52872 0.972127 0.0 
1.24748 0.953159 0.0 
2.72778 0.968042 0.0 
2.09356 0.985603 0.0 
1.50074 0.99397 0.0 
1.47509 0.935243 0.0 
1.32751 0.972298 0.0 
3.16494 0.926843 0.0 
2.36886 0.491662 0.0 
1.48168 0.897221 0.0 
3.37817 0.932377 0.0 
2.05409 0.978811 0.0 
3.23406 0.932221 0.0 
1.78861 0.92111 0.0 
3.5 0 0.0 
1.5473 0.989246 0.0 
1.58327 0.965682 0.0 
1.53554 0.924228 0.0 
2.10707 0.933126 0.0 
1.34368 0.971668 0.0 
1.57692 0.967302 0.0 
1.53756 0.978071 0.0 
1.68691 0.922313 0.0 
1.50221 0.992746 0.0 
2.20719 0.976972 0.0 
1.54152 0.928634 0.0 
2.96601 0.93499 0.0 
2.09532 0.927018 0.0 
1.57817 0.986922 0.0 
1.54474 0.976888 0.0 
1.65062 0.934202 0.0 
1.51987 0.982465 0.0 
1.4174 0.982533 0.0 
1.88763 0.975272 0.0 
1.33878 0.972506 0.0 
3.11505 0.936601 0.0 
1.63306 0.966522 0.0 
1.7433 0.98096 0.0 
1.57246 0.916524 0.0 
2.04917 0.972543 0.0 
2.90912 0.257895 0.0 
1.79485 0.928006 0.0 
3.03158 0.969788 0.0 
2.49669 0.942535 0.0 
2.70361 0.940898 0.0 
1.80214 0.970941 0.0 
2.12056 0.918411 0.0 
2.242 0.978992 0.0 
1.71482 0.934293 0.0 
2.42724 0.929404 0.0 
1.62584 0.94101 0.0 
2.00808 0.931268 0.0 
1.58545 0.947336 0.0 
2.95098 0.960847 0.0 
1.57836 0.939171 0.0 
1.64747 0.918138 0.0 
2.06172 0.980943 0.0 
1.44915 0.929068 0.0 
2.11054 0.922969 0.0 
1.52576 0.99254 0.0 
3.5 0.892638 0.0 
1.49394 0.937426 0.0 
1.8811 0.932129 0.0 
2.77023 0.960376 0.0 
1.32842 0.973033 0.0 
2.31767 0.945941 0.0 
1.82801 0.971487 0.0 
1.37624 0.96392 0.0 
2.39965 0.964654 0.0 
1.42955 0.915374 0.0 
2.14234 0.936162 0.0 
2.24386 0.981475 0.0 
1.93679 0.976001 0.0 
1.35041 0.971287 0.0 
2.24341 0.986892 0.0 
1.59536 0.962956 0.0 
1.55403 0.992698 0.0 
2.08538 0.976814 0.0 
2.39633 0.984113 0.0 
2.36408 0.926216 0.0 
2.45793 0.967216 0.0 
3.23049 0.956515 0.0 
2.50118 0.978905 0.0 
2.28128 0.983948 0.0 
1.55441 0.974847 0.0 
2.50105 0.971936 0.0 
2.58592 0.950617 0.0 
1.51301 0.940759 0.0 
2.50303 0.982337 0.0 
2.10719 0.941153 0.0 
1.78083 0.943664 0.0 
1.60471 0.92178 0.0 
1.99363 0.942603 0.0 
1.48796 0.932702 0.0 
2.44544 0.98925 0.0 
1.56801 0.973577 0.0 
2.11711 0.963613 0.0 
2.1052 0.946624 0.0 
1.48614 0.920072 0.0 
1.34976 0.95802 0.0 
1.87599 0.941499 0.0 
2.15474 0.975823 0.0 
2.84269 0.904065 0.0 
1.89257 0.938102 0.0 
1.75365 0.924781 0.0 
1.48894 0.992887 0.0 
1.51154 0.991956 0.0 
1.56647 0.934848 0.0 
2.1815 0.973141 0.0 
1.66003 0.925444 0.0 
1.48893 0.97901 0.0 
2.23112 0.97485 0.0 
2.03392 0.977075 0.0 
1.53318 0.941846 0.0 
2.17758 0.984939 0.0 
2.14195 0.98092 0.0 
2.2615 0.951859 0.0 
2.82994 0.943026 0.0 
2.64582 0.888369 0.0 
1.95906 0.960757 0.0 
1.62759 0.988733 0.0 
1.51232 0.979185 0.0 
1.49243 0.988282 0.0 
1.70976 0.974725 0.0 
1.59341 0.936611 0.0 
2.69971 0.950349 0.0 
2.6573 0.971848 0.0 
1.59444 0.940748 0.0 
1.4615 0.989834 0.0 
1.56692 0.941633 0.0 
1.54395 0.939865 0.0 
2.37662 0.968567 0.0 
2.37834 0.956428 0.0 
3.5 0.558055 0.0 
2.19159 0.982896 0.0 
2.26565 0.972371 0.0 
2.06602 0.939176 0.0 
1.54114 0.919315 0.0 
1.6112 0.933792 0.0 
1.77192 0.940798 0.0 
2.41705 0.946103 0.0 
1.3299 0.973916 0.0 
1.51405 0.968592 0.0 
1.44517 0.933935 0.0 
1.66443 0.976463 0.0 
1.66362 0.940197 0.0 
2.43666 0.970913 0.0 
1.46765 0.940593 0.0 
2.27424 0.976693 0.0 
1.87556 0.948264 0.0 
1.51503 0.931368 0.0 
1.42233 0.98721 0.0 
2.29635 0.974318 0.0 
1.60243 0.984048 0.0 
1.64981 0.945262 0.0 
1.56056 0.980273 0.0 
1.55014 0.96161 0.0 
2.12823 0.971343 0.0 
2.1351 0.978472 0.0 
1.88398 0.944003 0.0 
1.69192 0.971448 0.0 
1.51735 0.911673 0.0 
1.29472 0.982637 0.0 
1.58716 0.988674 0.0 
1.32758 0.985797 0.0 
3.5 0.837082 0.0 
1.4113 0.728603 0.0 
2.15208 0.96825 0.0 
1.81485 0.973335 0.0 
2.63993 0.954514 0.0 
2.35167 0.975413 0.0 
1.98369 0.981813 0.0 
1.69668 0.942529 0.0 
1.54739 0.932213 0.0 
1.59635 0.931843 0.0 
1.61454 0.946327 0.0 
1.34665 0.97088 0.0 
1.65073 0.991439 0.0 
1.29382 0.974656 0.0 
1.52519 0.991132 0.0 
2.77324 0.952788 0.0 
1.89654 0.973135 0.0 
1.35178 0.96562 0.0 
2.36302 0.980617 0.0 
1.62547 0.991921 0.0 
1.51336 0.976901 0.0 
1.64334 0.974763 0.0 
2.09588 0.949924 0.0 
1.67879 0.970898 0.0 
1.43117 0.982249 0.0 
1.32421 0.973678 0.0 
1.1509 0.893251 0.0 
2.27254 0.930059 0.0 
2.02811 0.968208 0.0 
2.3048 0.969889 0.0 
1.55657 0.987668 0.0 
2.01896 0.98385 0.0 
1.7088 0.965021 0.0 
2.30156 0.966473 0.0 
1.51866 0.980186 0.0 
1.35673 0.969628 0.0 
2.49491 0.986159 0.0 
1.62199 0.959794 0.0 
1.98105 0.973433 0.0 
1.75245 0.979213 0.0 
1.59133 0.926445 0.0 
1.6019 0.765702 0.0 
1.76929 0.937964 0.0 
1.67874 0.990907 0.0 
1.85774 0.985729 0.0 
2.35909 0.972258 0.0 
1.36731 0.965972 0.0 
1.86931 0.977695 0.0 
1.65936 0.972127 0.0 
2.48046 0.963664 0.0 
1.72524 0.969286 0.0 
1.63931 0.953279 0.0 
1.45659 0.922234 0.0 
2.11192 0.943569 0.0 
1.99092 0.979518 0.0 
2.0782 0.988227 0.0 
2.50999 0.955486 0.0 
2.54076 0.909414 0.0 
1.83573 0.969281 0.0 
1.35804 0.967936 0.0 
1.49129 0.939548 0.0 
1.96814 0.939663 0.0 
1.32871 0.971371 0.0 
1.71483 0.973046 0.0 
1.53973 0.991783 0.0 
1.52098 0.974379 0.0 
3.5 0.861263 0.0 
1.34826 0.988533 0.0 
[...]
<PointData>
  <DataArray type = "Float64" Name="Vitesse" NumberOfComponents="3" format="ascii">
1.00045 0.00537984 0.0 
0.553894 0.00812855 0.0 
0.705916 0.00876813 0.0 
0.784301 -9.25946e-06 0.0 
0.543246 0.0107297 0.0 
0.776657 -0.000628163 0.0 
0.745608 -0.00173834 0.0 
0.553996 -0.0110731 0.0 
0.657739 0.0222565 0.0 
0.850362 -0.000889223 0.0 
0.582737 -0.0114063 0.0 
0.745795 -0.000474334 0.0 
0.604557 -0.00322494 0.0 
1.01165 -0.000282301 0.0 
1.00984 -0.000258543 0.0 
0.775087 -0.000447042 0.0 
0.777375 -4.26355e-05 0.0 
0.767817 -0.00146387 0.0 
0.731165 -0.000794747 0.0 
0.726337 -0.00127666 0.0 
0.792538 -5.81774e-06 0.0 
0.694693 0.0164638 0.0 
0.77732 -0.000579352 0.0 
0.214403 0.0159528 0.0 
1.01938 -0.00339702 0.0 
0.736413 -0.000909007 0.0 
0.647701 -0.0034392 0.0 
0.999522 -0.0003195 0.0 
0.643842 0.00977914 0.0 
0.774783 -0.000484374 0.0 
0.836892 0.000295261 0.0 
0.944074 -0.00305449 0.0 
0.682605 7.12981e-05 0.0 
0.765575 -0.000746478 0.0 
0.820099 -0.000456276 0.0 
0.755052 -0.000724058 0.0 
0.775393 -0.00064896 0.0 
0.988152 0.00280162 0.0 
0.76446 -0.000573963 0.0 
0.747427 -0.00136309 0.0 
0.762479 -0.000229895 0.0 
0.737222 -0.00109503 0.0 
0.737989 -0.0137086 0.0 
0.767872 -0.00117823 0.0 
0.892984 -0.0020267 0.0 
0.562784 0.0278298 0.0 
0.784171 -0.00104088 0.0 
0.615208 0.0252029 0.0 
0.726377 0.00687556 0.0 
0.804204 -3.2461e-05 0.0 
0.745757 -0.000811817 0.0 
0.905246 0.000222581 0.0 
0.735326 0.00955982 0.0 
0.650862 0.0194492 0.0 
0.838827 0.000279769 0.0 
0.789185 -0.00124275 0.0 
0.806679 0.00010593 0.0 
0.79382 -0.00113055 0.0 
1.01112 -0.000571375 0.0 
0.625771 -0.00159854 0.0 
0.956203 -0.000175058 0.0 
0.827608 0.000288367 0.0 
0.63639 0.0208992 0.0 
0.60793 -0.00413159 0.0 
0.778794 -0.00133196 0.0 
0.72702 -0.00100621 0.0 
0.597974 0.0208638 0.0 
0.659252 0.0206378 0.0 
0.778924 -0.00115367 0.0 
0.757548 -0.00107652 0.0 
0.776979 -0.000890717 0.0 
0.768891 0.00322121 0.0 
0.701044 0.0123879 0.0 
0.627616 0.0251411 0.0 
0.855646 0.000327805 0.0 
0.904466 -0.0112913 0.0 
0.785665 2.42682e-05 0.0 
0.641879 0.0240445 0.0 
0.78579 -0.000898891 0.0 
0.760417 -0.000773926 0.0 
0.89284 0.000286309 0.0 
0.735765 0.00438206 0.0 
0.680404 0.0112801 0.0 
0.7033 0.00521657 0.0 
0.972718 -8.65564e-05 0.0 
0.79486 -0.000604022 0.0 
0.62573 -0.00325624 0.0 
0.689983 0.0086567 0.0 
0.793293 3.25299e-05 0.0 
0.648575 0.0141497 0.0 
0.814124 0.000145158 0.0 
0.841115 -0.000312057 0.0 
0.791882 -0.00143933 0.0 
0.878998 -4.45757e-06 0.0 
0.861443 0.000318214 0.0 
1.00757 0.00699227 0.0 
0.886621 0.000427136 0.0 
0.879828 0.000298959 0.0 
0.796007 -0.000459701 0.0 
1 -0.00421364 0.0 
1.00599 -0.000423591 0.0 
0.915627 0.000365493 0.0 
0.697721 0.0144514 0.0 
0.621454 0.019186 0.0 
0.964129 7.72618e-05 0.0 
0.731161 0.000144106 0.0 
0.704366 0.0107297 0.0 
0.941339 0.000276481 0.0 
0.77621 -0.000157842 0.0 
0.642788 0.0159512 0.0 
0.598841 0.0227973 0.0 
0.75475 -0.000593844 0.0 
0.589803 -0.0139396 0.0 
0.898949 -1.40297e-05 0.0 
0.908741 0.00031254 0.0 
0.761717 -0.000390814 0.0 
0.73317 -0.000620782 0.0 
0.689564 0.00443044 0.0 
0.979336 4.44096e-05 0.0 
0.866443 -0.000365569 0.0 
0.765974 -0.000245323 0.0 
0.881223 0.000327401 0.0 
0.767929 -0.000854607 0.0 
0.536817 -0.00781165 0.0 
0.988356 -0.00107486 0.0 
0.718622 0.00138276 0.0 
0.533674 -0.0012684 0.0 
0.765737 -0.000435221 0.0 
0.622674 0.0252733 0.0 
0.644021 -0.00345469 0.0 
0.736502 -0.00131576 0.0 
0.800829 9.94422e-06 0.0 
0.952487 -0.000678515 0.0 
0.789248 -5.60854e-05 0.0 
0.787949 -0.000185178 0.0 
0.615682 0.0217213 0.0 
0.511889 0.0245117 0.0 
0.804556 -0.00134719 0.0 
0.534205 -0.00421418 0.0 
0.550322 -0.000880741 0.0 
0.632173 -0.00463281 0.0 
0.807635 0.000107238 0.0 
0.710744 5.39259e-05 0.0 
0.711182 -0.00029795 0.0 
0.981399 -0.00035495 0.0 
0.63735 0.0184072 0.0 
0.920534 -0.000170107 0.0 
0.782647 -0.00063835 0.0 
0.752873 -0.000416581 0.0 
0.625723 0.0227089 0.0 
0.520618 0.00682974 0.0 
0.549905 -0.004949 0.0 
0.580031 0.00846676 0.0 
0.627833 0.0166898 0.0 
0.791503 -0.000146816 0.0 
0.593585 0.0249346 0.0 
0.7742 -0.000355669 0.0 
0.855989 0.000384742 0.0 
0.994558 -0.00055531 0.0 
0.758092 -0.00134806 0.0 
0.605903 0.026268 0.0 
0.618921 -0.0021257 0.0 
0.778511 -0.001559 0.0 
0.690838 -0.000536847 0.0 
0.661503 0.00569533 0.0 
0.746562 2.58564e-05 0.0 
0.848451 -0.00248703 0.0 
0.64181 -0.00059567 0.0 
0.346189 -0.0605015 0.0 
0.73216 -0.0019882 0.0 
0.604218 0.0253612 0.0 
0.766429 -0.000208376 0.0 
0.769035 -0.000284399 0.0 
0.948142 0.000186169 0.0 
1.0032 -0.00442661 0.0 
0.608744 0.0262263 0.0 
0.624122 0.024249 0.0 
0.736884 -0.00160075 0.0 
0.83106 -0.00136574 0.0 
0.688097 0.00168385 0.0 
0.588471 -0.0340824 0.0 
0.635684 0.00705558 0.0 
0.701441 -0.0189715 0.0 
0.657835 0.00967264 0.0 
0.744738 0.0016613 0.0 
0.511586 -0.0447525 0.0 
0.47946 0.0149938 0.0 
1.01678 -0.00917512 0.0 
0.629276 0.0135683 0.0 
0.757059 -0.00157705 0.0 
0.781337 -0.000191028 0.0 
1.01683 -0.00393403 0.0 
0.62371 -0.00272768 0.0 
0.734101 -0.000976849 0.0 
0.81591 0.000191399 0.0 
0.740884 -0.000942847 0.0 
0.741283 -0.00113425 0.0 
0.718628 -0.00115296 0.0 
1.01322 0 0.0 
0.707175 -0.00148277 0.0 
0.745285 -0.000485518 0.0 
0.9647 -0.00017473 0.0 
0.989992 -0.00179813 0.0 
0.78038 -5.38837e-05 0.0 
1.01489 -0.00552825 0.0 
0.962711 0.000154862 0.0 
0.726012 -0.00166165 0.0 
1.00525 -0.00192791 0.0 
0.547497 0.0122497 0.0 
0.55178 0.0167858 0.0 
0.516584 0.0233562 0.0 
1.00928 -0.00259878 0.0 
0.609261 -0.00319269 0.0 
0.938163 -1.49363e-05 0.0 
1.01813 0.00565366 0.0 
0.747779 -0.00101049 0.0 
0.609187 0.0137241 0.0 
1.01193 -0.00358589 0.0 
0.603669 0.0196476 0.0 
0.971773 0.0266307 0.0 
0.76118 -0.000232485 0.0 
0.659198 -0.00363608 0.0 
0.501448 0.0259376 0.0 
1.00267 0.00351643 0.0 
0.353384 -0.0467448 0.0 
0.953184 4.41602e-05 0.0 
1.01461 -0.000871032 0.0 
1.01281 -0.00142954 0.0 
0.930084 0.000283068 0.0 
0.655692 -0.00233985 0.0 
0.93317 0.000187328 0.0 
1.0075 -0.003386 0.0 
1.01567 0 0.0 
0.52317 0.0141488 0.0 
0.667813 0.00201959 0.0 
1.00457 -0.00394604 0.0 
0.968527 -0.00169821 0.0 
0.422901 -0.0551904 0.0 
0.644339 0.00390421 0.0 
0.53664 0.0205154 0.0 
1.00848 -0.00377332 0.0 
0.499563 0.0270717 0.0 
0.682953 -0.00204748 0.0 
1.00275 -0.0037573 0.0 
0.927872 0.000104759 0.0 
0.987965 -0.00205438 0.0 
0.532064 -5.55347e-05 0.0 
0.543258 0.0174431 0.0 
0.994589 -0.00412938 0.0 
0.515342 0.0271736 0.0 
0.495645 -0.0180728 0.0 
0.644376 -0.000451934 0.0 
0.392013 -0.0569813 0.0 
0.917902 0.000208445 0.0 
0.663069 -0.00546682 0.0 
0.591848 -0.00667762 0.0 
1.00757 -0.00453584 0.0 
0.680615 -0.00137101 0.0 
1.01549 -0.000199432 0.0 
1.00042 -0.00308822 0.0 
0.772629 -0.000265978 0.0 
0.903916 -0.000201432 0.0 
0.906684 6.75294e-05 0.0 
0.669916 -0.000902224 0.0 
1.00187 -0.00226589 0.0 
0.683168 -0.00221524 0.0 
0.991643 -0.00334217 0.0 
0.967356 -0.000910323 0.0 
0.971535 -0.00413317 0.0 
0.980874 -0.00215632 0.0 
0.932075 -0.00401486 0.0 
0.80173 0.00012915 0.0 
0.981867 -0.00488211 0.0 
1.01048 -0.00394027 0.0 
0.652803 -0.00271481 0.0 
1.01201 0.00534497 0.0 
0.995694 -0.0021638 0.0 
0.520586 0.0211378 0.0 
1.00542 -0.000217414 0.0 
0.995903 0.0012631 0.0 
0.986383 -0.00254086 0.0 
0.798129 0.000119585 0.0 
0.347357 -0.0505375 0.0 
0.888737 -0.000506513 0.0 
0.666811 -0.000244748 0.0 
0.711117 -0.0164013 0.0 
0.758429 -0.000429838 0.0 
1.01759 0.00288409 0.0 
0.953651 -0.00142934 0.0 
0.680857 -0.00254442 0.0 
0.647168 -0.000912949 0.0 
0.455094 -0.0540689 0.0 
0.68495 -0.00333835 0.0 
0.710089 -0.000589723 0.0 
0.54658 0.00822099 0.0 
0.666402 -0.00213522 0.0 
0.701328 -0.00233182 0.0 
0.979348 -0.00121155 0.0 
0.747757 -0.00046861 0.0 
0.827903 0.000229009 0.0 
0.714024 -0.00142433 0.0 
0.686127 -0.00275356 0.0 
0.557681 0.013165 0.0 
0.730362 -0.00077245 0.0 
0.852562 0.000126299 0.0 
0.9849 -0.000725401 0.0 
0.71274 -0.00178375 0.0 
0.929507 -0.00117922 0.0 
0.943478 -0.0019418 0.0 
1.00687 -0.00454911 0.0 
0.929175 -0.00131906 0.0 
1.00299 0.00127276 0.0 
0.716922 -0.00275826 0.0 
0.566845 0.00784119 0.0 
0.750272 -0.00076847 0.0 
0.892923 -0.000865426 0.0 
1.00829 4.04249e-05 0.0 
0.822312 -0.0153303 0.0 
0.947086 -0.00181856 0.0 
0.679742 -0.0020601 0.0 
1.00376 -0.000720927 0.0 
0.963498 -0.00206185 0.0 
1.00601 -0.00341332 0.0 
0.487326 0.0273885 0.0 
0.505975 0.0263316 0.0 
0.993862 -0.00466081 0.0 
0.694105 -0.00167441 0.0 
1.00627 -0.00405284 0.0 
0.552264 0.0293986 0.0 
0.692779 -0.001716 0.0 
0.657387 -0.00191658 0.0 
0.976932 -0.00256551 0.0 
0.671833 -0.00330742 0.0 
0.666259 -0.0028404 0.0 
0.847823 -0.000509922 0.0 
0.893024 0.000225742 0.0 
1.01191 -0.00107158 0.0 
0.770855 -0.000109832 0.0 
0.558227 -0.0152107 0.0 
0.53809 0.0281056 0.0 
0.492493 0.0306613 0.0 
0.617651 -0.00823459 0.0 
0.989775 -0.00480411 0.0 
0.853646 0.000206033 0.0 
0.743084 -0.000558152 0.0 
0.974439 -0.00467884 0.0 
0.471815 0.0199919 0.0 
0.972886 -0.00453985 0.0 
0.982368 -0.00364323 0.0 
0.734867 -0.000740482 0.0 
0.813252 -0.000224078 0.0 
1.0156 -0.000280436 0.0 
0.672766 -0.00295418 0.0 
0.706862 -0.00134476 0.0 
0.943727 -0.00141209 0.0 
1.00655 -0.0041096 0.0 
0.996034 -0.00462364 0.0 
0.96134 -0.00228208 0.0 
0.884552 -0.000274579 0.0 
0.343207 -0.0550946 0.0 
0.671545 0.0187032 0.0 
1.01062 0.00698132 0.0 
0.583877 -0.012314 0.0 
0.973304 -0.00354971 0.0 
0.728954 -0.00078774 0.0 
0.996812 0.00600547 0.0 
0.692281 -0.0018109 0.0 
0.898907 -0.00113057 0.0 
1.00119 -0.00189827 0.0 
0.457633 -0.0169459 0.0 
0.702208 -0.00146593 0.0 
0.535631 -0.00850362 0.0 
0.942512 -0.00339415 0.0 
0.523252 0.0110331 0.0 
0.754013 0.00601587 0.0 
0.697161 -0.00149106 0.0 
0.669169 -0.0024804 0.0 
0.930375 -0.00154815 0.0 
0.637986 -0.00848329 0.0 
1.00819 -0.00281386 0.0 
0.22506 0.00194655 0.0 
0.543537 -0.00469832 0.0 
0.319556 -0.0861003 0.0 
1.01365 -0.000290354 0.0 
1.0131 -0.00710494 0.0 
0.718598 -0.00118003 0.0 
0.650612 -0.000699185 0.0 
0.828462 0.000163529 0.0 
0.704761 -0.00143629 0.0 
0.638299 -0.00231545 0.0 
0.958117 -0.00295769 0.0 
0.998442 -0.0042799 0.0 
0.999403 -0.00470174 0.0 
0.936478 -0.00401314 0.0 
0.447084 -0.0524997 0.0 
0.578908 -0.0178193 0.0 
0.239548 0.0212966 0.0 
0.514226 0.0225206 0.0 
0.83966 0.000251279 0.0 
0.65883 -0.000254474 0.0 
0.588662 -0.0326687 0.0 
0.696782 -0.00201605 0.0 
0.57572 -0.015855 0.0 
0.558754 0.0266044 0.0 
0.58364 -0.010671 0.0 
0.867547 -0.000699109 0.0 
0.636572 -0.00891867 0.0 
0.513602 -0.00189861 0.0 
0.326062 -0.0472532 0.0 
1.04852 -0.0577401 0.0 
0.97133 -0.0013343 0.0 
0.707183 -0.000770811 0.0 
0.722405 -0.00101821 0.0 
0.523147 0.0105452 0.0 
0.644008 -0.00298822 0.0 
0.715703 -0.00468003 0.0 
0.741544 -0.000759937 0.0 
0.527859 0.0271363 0.0 
0.509721 -0.0462377 0.0 
0.715566 -0.00220707 0.0 
0.760316 -0.00307547 0.0 
0.666725 -0.000995287 0.0 
0.601403 -0.00534782 0.0 
1.00451 -0.00464781 0.0 
1.01287 -0.00437834 0.0 
0.974973 -0.00258626 0.0 
0.580036 -0.0165666 0.0 
0.611881 -0.00218672 0.0 
0.716318 -0.00110111 0.0 
0.63213 -0.0277488 0.0 
0.629452 -0.000699847 0.0 
0.614088 -0.00983777 0.0 
0.768566 -0.00023503 0.0 
0.673145 -0.00500493 0.0 
0.857518 -0.00315467 0.0 
1.01175 0.00330683 0.0 
0.913863 -0.00100906 0.0 
0.643077 -0.00195804 0.0 
0.662279 -0.00404652 0.0 
0.820891 3.23267e-05 0.0 
1.0029 -0.00112315 0.0 
0.686844 -5.20086e-05 0.0 
0.551467 -0.0392508 0.0 
0.992648 0.00214294 0.0 
0.949091 -0.00166389 0.0 
0.371267 -0.0448095 0.0 
0.633475 -0.00707964 0.0 
0.528904 0.0157325 0.0 
0.581254 0.023369 0.0 
1.01246 -0.000255842 0.0 
0.362668 -0.101521 0.0 
0.988572 -0.00432866 0.0 
0.674388 -0.00233652 0.0 
0.67504 -0.00185069 0.0 
0.977318 -0.00233699 0.0 
0.810997 0.000160975 0.0 
0.514788 0.0165407 0.0 
1.05139 0.0523148 0.0 
0.558706 0.021995 0.0 
0.763921 -0.000559253 0.0 
0.939256 -0.00117333 0.0 
0.546464 -0.0137472 0.0 
0.701777 -0.00115578 0.0 
0.996681 -0.000846917 0.0 
0.528606 0.0303418 0.0 
0.979705 -0.00167736 0.0 
0.528993 0.0193467 0.0 
0.637883 -0.00519861 0.0 
0.605383 -0.00601612 0.0 
0.960327 -0.00447692 0.0 
0.946747 -2.98401e-05 0.0 
0.851414 0.000306233 0.0 
0.909694 -0.00287761 0.0 
0.573577 0.0237377 0.0 
0.616095 -0.00400732 0.0 
0.919605 -0.0037955 0.0 
0.834771 -0.0031853 0.0 
0.852681 -0.00312029 0.0 
0.852274 -9.31956e-05 0.0 
0.489883 0.0231136 0.0 
0.822778 0.000236009 0.0 
0.485622 0.0254976 0.0 
0.327614 -0.0420983 0.0 
1.01668 -0.00623329 0.0 
0.715696 -0.00122086 0.0 
0.909018 -0.0011319 0.0 
0.884952 -0.000775025 0.0 
0.870921 -0.00290884 0.0 
0.696513 -0.00176309 0.0 
0.474465 0.0242826 0.0 
1.01204 0.000633151 0.0 
0.737485 -0.00493261 0.0 
0.65971 -0.00236244 0.0 
0.784717 -0.000388111 0.0 
0.594447 0.0176544 0.0 
0.848194 -0.00303615 0.0 
0.927152 -0.00189549 0.0 
0.628012 -0.00167847 0.0 
0.614639 -0.00564093 0.0 
0.755554 -0.000722828 0.0 
0.550528 -0.0129817 0.0 
0.638802 -0.00348407 0.0 
0.536592 0.00870877 0.0 
0.879196 0.000154848 0.0 
0.717057 -0.00110318 0.0 
0.851506 -0.000522612 0.0 
1.00585 0.00114406 0.0 
0.490338 0.0287397 0.0 
0.595309 -0.0113836 0.0 
0.838097 -0.000586443 0.0 
0.686793 -0.00464414 0.0 
0.874045 -0.000624119 0.0 
0.913492 -0.000552109 0.0 
0.655019 -0.00443814 0.0 
0.647291 -0.00148921 0.0 
0.585199 -0.0125779 0.0 
1.0083 -0.000601749 0.0 
0.912568 -0.00357505 0.0 
0.947996 -0.000280153 0.0 
0.791455 -0.00292396 0.0 
0.576304 -0.0132709 0.0 
0.604896 0.00378084 0.0 
0.936259 0.000111167 0.0 
0.87317 -0.00258905 0.0 
0.798021 -0.000268949 0.0 
0.902786 -0.000827392 0.0 
0.769989 -0.0107718 0.0 
0.596211 -0.00632283 0.0 
0.74584 -0.000233438 0.0 
0.639327 -0.00372395 0.0 
0.903103 -0.00169503 0.0 
0.560459 -0.0127033 0.0 
0.376986 -0.0609083 0.0 
0.935977 -0.000728244 0.0 
0.579095 -0.010348 0.0 
0.722746 2.38192e-05 0.0 
0.960522 -0.00117057 0.0 
0.570908 0.0265896 0.0 
0.529492 0.00405406 0.0 
0.962727 -0.000496033 0.0 
0.74066 2.04573e-05 0.0 
0.803231 -0.000560961 0.0 
0.584686 -0.00797948 0.0 
0.660678 -7.79653e-05 0.0 
0.536205 0.00330028 0.0 
0.813191 -0.00326862 0.0 
0.576461 -0.0127647 0.0 
0.477489 0.026014 0.0 
0.557777 0.00917694 0.0 
0.564167 -0.015312 0.0 
0.224199 0.000330827 0.0 
0.618603 -0.00109597 0.0 
0.661571 -0.00148841 0.0 
0.720762 -0.00281041 0.0 
0.699409 1.18746e-05 0.0 
0.660691 -0.00324277 0.0 
0.922822 -0.000959663 0.0 
0.616784 -0.00224069 0.0 
0.546013 -0.00986336 0.0 
0.939663 -0.000380942 0.0 
0.680948 -0.000115213 0.0 
0.551061 -0.0141841 0.0 
0.907904 -0.00331527 0.0 
0.476727 -0.033055 0.0 
0.451024 -0.0491574 0.0 
0.797395 -0.000855571 0.0 
0.591635 -0.005351 0.0 
0.562491 -0.0104451 0.0 
0.795453 -0.000160247 0.0 
0.886043 -0.00208694 0.0 
0.6501 -0.00168156 0.0 
0.603677 -0.00927593 0.0 
0.62158 -0.00630014 0.0 
0.596673 -0.00360477 0.0 
0.564625 -0.000961946 0.0 
0.582794 -0.0102141 0.0 
0.528312 -0.00299764 0.0 
0.581741 -0.0133654 0.0 
0.528134 0.0109646 0.0 
0.739252 -0.000701912 0.0 
0.923327 -0.000388224 0.0 
0.550907 0.0273493 0.0 
0.993435 -0.00290601 0.0 
0.976746 -0.000749181 0.0 
0.901013 -0.00354127 0.0 
0.545061 -0.00952332 0.0 
0.584031 -0.00746882 0.0 
0.582763 0.0133839 0.0 
0.773521 -0.000204979 0.0 
0.827988 0.000265363 0.0 
0.56275 -0.0141937 0.0 
0.867441 0.000275821 0.0 
0.999763 -0.000166552 0.0 
0.539017 -0.00959432 0.0 
0.671742 -0.00371975 0.0 
0.843279 -0.00266376 0.0 
0.958735 -0.0035893 0.0 
0.849577 -0.000541799 0.0 
0.822711 -0.000656928 0.0 
0.891694 -0.00291715 0.0 
0.828528 -0.000430992 0.0 
0.8519 -0.00117953 0.0 
0.60751 -0.00299323 0.0 
0.552736 0.0246571 0.0 
0.513925 0.0241677 0.0 
0.955837 -0.0227848 0.0 
0.609763 -0.00684679 0.0 
0.631866 -0.000553627 0.0 
1.00351 -0.00373141 0.0 
0.855311 -0.00078171 0.0 
0.787659 -0.00016188 0.0 
0.534851 0.0152496 0.0 
1.09928 -0.0273322 0.0 
0.510419 0.023294 0.0 
0.884826 -0.00257794 0.0 
0.514016 0.0165194 0.0 
0.567548 -0.0135793 0.0 
0.55468 -0.0157793 0.0 
0.876569 -0.0015235 0.0 
0.646758 -0.000281008 0.0 
1.00199 -0.0028297 0.0 
0.604167 -0.00794851 0.0 
1.0153 0.00683067 0.0 
0.657418 -0.000601663 0.0 
0.629874 -0.00109952 0.0 
0.628271 -0.00389123 0.0 
0.270297 -0.0148501 0.0 
0.660712 -0.00171229 0.0 
0.490366 0.0289029 0.0 
0.610874 -0.00115438 0.0 
0.997773 -0.00155477 0.0 
0.394051 -0.0839828 0.0 
0.51319 0.0196885 0.0 
0.764749 -0.00385997 0.0 
0.634073 -0.00891347 0.0 
0.90335 -0.00137663 0.0 
0.61592 0.0107048 0.0 
0.594213 0.0151549 0.0 
0.956436 -0.0032607 0.0 
0.879631 -0.000794891 0.0 
0.630884 -0.00265979 0.0 
0.522238 0.00828298 0.0 
1.10884 -0.15694 0.0 
0.686922 -0.00504424 0.0 
0.907333 -0.00238564 0.0 
0.632798 -0.00245653 0.0 
0.817773 -0.000297473 0.0 
0.827014 -0.000572528 0.0 
0.597238 -0.00789514 0.0 
1.01699 2.17139e-05 0.0 
0.554182 -0.0144763 0.0 
0.922062 -0.00229621 0.0 
0.565772 -0.017501 0.0 
1.00933 -0.0075106 0.0 
0.878523 -0.000939756 0.0 
0.565234 -0.0152779 0.0 
0.595517 -0.00504308 0.0 
0.585517 -0.00925894 0.0 
0.573921 -0.0161699 0.0 
0.607027 -0.00181164 0.0 
0.633975 0.00240881 0.0 
0.527365 0.00011224 0.0 
0.60226 -0.00646052 0.0 
0.713142 -0.00565896 0.0 
0.618931 -0.00422384 0.0 
0.781832 -0.00171708 0.0 
0.621866 -0.00734058 0.0 
0.948665 -0.00103336 0.0 
0.573458 -0.0127262 0.0 
0.98834 -0.00409491 0.0 
0.880347 -0.00121035 0.0 
0.639764 -0.00638139 0.0 
0.818267 -0.00333172 0.0 
0.77675 -0.000322195 0.0 
0.541651 -0.0114603 0.0 
0.573553 -0.0120662 0.0 
0.528545 0.0222432 0.0 
0.822469 -0.000283829 0.0 
0.672373 -0.000545586 0.0 
1.00779 0.00457555 0.0 
0.563016 -0.0160594 0.0 
0.687763 -0.000881715 0.0 
0.822616 -0.00242772 0.0 
0.822709 -0.000402726 0.0 
0.537987 0.030141 0.0 
0.569847 0.0125585 0.0 
0.852666 -0.000497929 0.0 
0.591053 -0.00949059 0.0 
0.500719 0.0280492 0.0 
0.684442 -0.00633795 0.0 
0.587161 7.23256e-05 0.0 
0.584382 -0.00611949 0.0 
0.627698 -0.00214527 0.0 
0.925683 -0.00336829 0.0 
0.510178 0.0215559 0.0 
0.499286 0.0303462 0.0 
0.594438 -0.0037897 0.0 
0.982393 -0.00435471 0.0 
0.684503 -0.00666395 0.0 
0.587011 -0.00877179 0.0 
0.568857 -0.0147467 0.0 
0.375132 -0.0964633 0.0 
0.55907 0.0287723 0.0 
0.548925 0.011317 0.0 
0.576102 -0.0136378 0.0 
0.993111 -0.0026079 0.0 
1.0125 -0.00537812 0.0 
0.703435 -0.00551024 0.0 
0.925762 -0.00281091 0.0 
0.25928 -0.0421425 0.0 
0.533588 0.0109348 0.0 
0.814602 -0.00124676 0.0 
0.570696 -0.0176811 0.0 
0.794495 -0.000132136 0.0 
0.517131 0.0124038 0.0 
0.674798 0.00866326 0.0 
0.987513 -0.00019984 0.0 
0.808654 0.000183231 0.0 
0.704777 0.00015002 0.0 
1.01137 -0.0026299 0.0 
0.595619 -0.0115308 0.0 
0.764456 4.18115e-05 0.0 
0.879572 -0.000732872 0.0 
0.5429 -0.00631078 0.0 
0.829599 -0.00175152 0.0 
0.873913 -0.00309524 0.0 
0.597021 0.0122433 0.0 
0.659723 -0.00750389 0.0 
0.573058 0.00274302 0.0 
0.556025 -0.0105417 0.0 
0.55827 -0.000352681 0.0 
0.817583 -0.00260292 0.0 
0.877878 -0.0032969 0.0 
0.76574 -0.00102239 0.0 
0.616327 0.0083413 0.0 
0.586723 0.0197735 0.0 
0.592086 -0.0102583 0.0 
0.629492 -0.00832542 0.0 
0.902656 -0.00286041 0.0 
0.788834 -0.00311464 0.0 
0.780286 0.00128236 0.0 
0.891084 -0.00329364 0.0 
0.921014 -0.00150238 0.0 
0.684163 -0.00100682 0.0 
0.716743 -0.00506661 0.0 
0.356427 -0.0978259 0.0 
0.532503 0.0292886 0.0 
0.624296 -0.00852423 0.0 
1.00217 -0.00457268 0.0 
0.609305 -0.00945086 0.0 
0.726396 -0.00417697 0.0 
0.527146 0.0303582 0.0 
1.01127 -0.00209039 0.0 
1.01283 -0.00379635 0.0 
0.569997 0.0104755 0.0 
0.581658 -0.0116504 0.0 
0.630524 0.010337 0.0 
0.498003 0.0313028 0.0 
0.855985 -0.00196453 0.0 
0.590234 -0.00392606 0.0 
0.540463 0.0082604 0.0 
0.6411 0.022584 0.0 
0.537502 0.0144742 0.0 
0.579084 0.0168425 0.0 
0.657577 -0.00700564 0.0 
0.779775 -0.00173778 0.0 
0.521212 0.0310736 0.0 
0.405721 -0.0589894 0.0 
0.747523 -0.00455438 0.0 
0.791389 -0.00368212 0.0 
0.776915 -0.00387656 0.0 
0.891571 -0.00326768 0.0 
1.01454 -0.000715468 0.0 
0.519827 0.00815033 0.0 
0.569023 0.0285558 0.0 
0.713683 -0.000590526 0.0 
0.506945 0.0247619 0.0 
0.907512 -0.00103981 0.0 
0.518383 0.0179825 0.0 
0.480056 0.0270027 0.0 
0.697069 -0.00304644 0.0 
0.542172 0.0248923 0.0 
0.654035 0.0122418 0.0 