<VTKFile type="UnstructuredGrid" version="0.1" byte_order="LittleEndian">
  <UnstructuredGrid>
    <Piece NumberOfPoints="16538" NumberOfCells="32582">
      <Points>
        <DataArray type = "Float64" NumberOfComponents="3" format="ascii">
1.07015 1.01341 0.0 
1.05854 1.01821 0.0 
1.0589 1.01567 0.0 
1.1202 1.0246 0.0 
1.09257 1.02405 0.0 
1.18453 1.00486 0.0 
1.07054 1.02613 0.0 
1.06647 1.02559 0.0 
1.06964 1.01873 0.0 
1.07118 1.01475 0.0 
1.05043 1.01629 0.0 
1.07024 1.014 0.0 
1.05548 1.01733 0.0 
1.05864 1.01622 0.0 
1.14843 1.01968 0.0 
1.05888 1.01688 0.0 
1.13925 1.01974 0.0 
1.07475 1.01652 0.0 
1.05876 1.01751 0.0 
1.05803 1.01646 0.0 
1.05713 1.01649 0.0 
1.05716 1.01587 0.0 
1.05815 1.01576 0.0 
1.05738 1.01833 0.0 
1.0659 1.01777 0.0 
1.06318 1.02169 0.0 
1.06257 1.01687 0.0 
1.07136 1.01547 0.0 
1.06139 1.02197 0.0 
1.0726 1.02404 0.0 
1.07466 1.02432 0.0 
1.05308 1.02002 0.0 
1.06313 1.0226 0.0 
1.06226 1.02582 0.0 
1.06183 1.01585 0.0 
1.07123 1.02293 0.0 
1.05554 1.01671 0.0 
1.06115 1.02034 0.0 
1.06988 1.02327 0.0 
1.09798 1.02336 0.0 
1.05924 1.02042 0.0 
1.05766 1.01582 0.0 
1.07211 1.0248 0.0 
1.05819 1.01894 0.0 
1.16621 0.995574 0.0 
1.05957 1.0196 0.0 
1.06036 1.02114 0.0 
1.07807 1.0316 0.0 
1.06797 1.02321 0.0 
1.08918 1.02135 0.0 
1.06576 1.02287 0.0 
1.06721 1.0244 0.0 
1.05788 1.01973 0.0 
1.05977 1.02174 0.0 
1.08311 1.02159 0.0 
1.07811 1.02119 0.0 
1.07739 1.02449 0.0 
1.0588 1.02115 0.0 
1.18803 0.988104 0.0 
1.06624 1.02371 0.0 
1.07072 1.02427 0.0 
1.05774 1.02908 0.0 
1.05702 1.01697 0.0 
1.07283 1.02338 0.0 
1.07042 1.01451 0.0 
1.05498 1.02221 0.0 
1.07664 1.01778 0.0 
1.06935 1.02383 0.0 
1.06822 1.01393 0.0 
1.07988 1.0171 0.0 
1.068 1.02394 0.0 
1.08843 1.02293 0.0 
1.05625 1.01657 0.0 
1.04681 1.01829 0.0 
1.08176 1.01952 0.0 
1.06784 1.01469 0.0 
1.11307 1.02095 0.0 
1.08261 1.02283 0.0 
1.05666 1.01592 0.0 
1.05788 1.01698 0.0 
1.12579 1.02531 0.0 
1.06118 1.01586 0.0 
1.06895 1.01374 0.0 
1.05747 1.0176 0.0 
1.07102 1.02372 0.0 
1.05616 1.01596 0.0 
1.08453 1.02096 0.0 
1.06967 1.01354 0.0 
1.06148 1.01729 0.0 
1.06451 1.02333 0.0 
1.06943 1.01361 0.0 
1.10694 1.02122 0.0 
1.05635 1.01891 0.0 
1.11958 1.02143 0.0 
1.06452 1.02392 0.0 
1.104 1.02166 0.0 
1.07423 1.02377 0.0 
1.05517 1.01605 0.0 
1.05635 1.01719 0.0 
1.06846 1.0146 0.0 
1.06299 1.02347 0.0 
1.06774 1.01405 0.0 
1.06932 1.02448 0.0 
1.05635 1.018 0.0 
1.04693 1.02447 0.0 
1.05994 1.02245 0.0 
1.08573 1.02413 0.0 
1.06912 1.01456 0.0 
1.087 1.02353 0.0 
1.07628 1.02381 0.0 
1.08274 1.01758 0.0 
1.05567 1.01601 0.0 
1.18043 1.01696 0.0 
1.05268 1.02578 0.0 
1.06725 1.01417 0.0 
1.06923 1.01996 0.0 
1.06673 1.01944 0.0 
1.07334 1.02179 0.0 
1.09497 1.02367 0.0 
1.07538 1.025 0.0 
1.08116 1.02324 0.0 
1.04386 1.01883 0.0 
1.08249 1.02406 0.0 
1.04589 1.01695 0.0 
1.12585 1.0214 0.0 
1.10806 1.02206 0.0 
1.07099 1.01952 0.0 
1.06304 1.01624 0.0 
1.05989 1.01554 0.0 
1.06975 1.0149 0.0 
1.0598 1.01618 0.0 
1.07476 1.02318 0.0 
1.06962 1.01426 0.0 
1.09346 1.028 0.0 
1.06056 1.01608 0.0 
1.06038 1.01547 0.0 
1.05935 1.01561 0.0 
1.06015 1.01668 0.0 
1.05925 1.01631 0.0 
1.08865 1.02414 0.0 
1.07563 1.02148 0.0 
1.06003 1.01734 0.0 
1.06073 1.01684 0.0 
1.1008 1.02207 0.0 
1.07678 1.02321 0.0 
1.05974 1.01807 0.0 
1.07324 1.0201 0.0 
1.09722 1.02036 0.0 
1.10653 1.02843 0.0 
1.04087 1.01669 0.0 
1.0502 1.01934 0.0 
1.05002 1.02245 0.0 
1.15594 1.02438 0.0 
1.04485 1.02637 0.0 
1.05172 1.0219 0.0 
1.07131 1.02123 0.0 
1.13368 1.02802 0.0 
1.17377 0.994607 0.0 
1.04784 1.02529 0.0 
1.12275 1.02104 0.0 
1.06323 1.03107 0.0 
1.06271 1.01757 0.0 
1.07214 1.01813 0.0 
1.05325 1.02461 0.0 
1.13266 1.02544 0.0 
1.19508 1.00367 0.0 
1.04717 1.01959 0.0 
1.10417 1.02748 0.0 
1.06708 1.01613 0.0 
1.05506 1.02462 0.0 
1.05734 1.0225 0.0 
1.14971 1.02463 0.0 
1.14305 1.02587 0.0 
1.08157 1.0306 0.0 
1.06905 1.02554 0.0 
1.12505 1.02699 0.0 
1.06963 1.02988 0.0 
1.04694 1.02502 0.0 
1.19345 1.00519 0.0 
1.10363 1.01878 0.0 
1.05181 1.02276 0.0 
1.18107 1.0059 0.0 
1.05366 1.02177 0.0 
1.11394 1.02825 0.0 
1.08725 1.02846 0.0 
1.08659 1.0206 0.0 
1.12184 1.02682 0.0 
1.07184 1.01601 0.0 
1.0712 1.02209 0.0 
1.04528 1.01685 0.0 
1.04793 1.01631 0.0 
1.06521 1.0153 0.0 
1.0684 1.02652 0.0 
1.06471 1.02052 0.0 
1.04168 1.01697 0.0 
1.04174 1.01619 0.0 
1.0852 1.02571 0.0 
1.1463 1.02526 0.0 
1.04473 1.01626 0.0 
1.04367 1.02017 0.0 
1.05117 1.01888 0.0 
1.07631 1.02814 0.0 
1.10965 1.01926 0.0 
1.13338 1.0261 0.0 
1.07054 1.01522 0.0 
1.04514 1.02393 0.0 
1.04252 1.01839 0.0 
1.04801 1.02469 0.0 
1.11805 1.01932 0.0 
1.06884 1.01527 0.0 
1.04471 1.02167 0.0 
1.12935 1.02032 0.0 
1.09754 1.02929 0.0 
1.1454 1.02308 0.0 
1.08005 1.02855 0.0 
1.04996 1.01851 0.0 
1.07412 1.01881 0.0 
1.1018 1.02722 0.0 
1.04817 1.02014 0.0 
1.09353 1.02196 0.0 
1.06972 1.0207 0.0 
1.11504 1.02567 0.0 
1.09159 1.01837 0.0 
1.06474 1.02524 0.0 
1.13903 1.02432 0.0 
1.08962 1.02909 0.0 
1.05505 1.02399 0.0 
1.08428 1.02884 0.0 
1.13269 1.02013 0.0 
1.06777 1.01544 0.0 
1.05048 1.01684 0.0 
1.09767 1.02537 0.0 
1.05358 1.01862 0.0 
1.06491 1.01712 0.0 
1.08916 1.01931 0.0 
1.07515 1.01975 0.0 
1.07015 1.03271 0.0 
1.05528 1.018 0.0 
1.06839 1.01643 0.0 
1.0483 1.0258 0.0 
1.05191 1.01746 0.0 
1.12449 1.02453 0.0 
1.19348 0.999743 0.0 
1.14317 1.02516 0.0 
1.04478 1.01848 0.0 
1.07032 1.02836 0.0 
1.05514 1.0276 0.0 
1.05856 1.02285 0.0 
1.04771 1.0168 0.0 
1.06152 1.02292 0.0 
1.06687 1.02681 0.0 
1.06151 1.01644 0.0 
1.06784 1.02599 0.0 
1.0832 1.03129 0.0 
1.08061 1.02174 0.0 
1.20062 1.00772 0.0 
1.18897 1.00509 0.0 
1.0744 1.01724 0.0 
1.1018 1.01539 0.0 
1.06319 1.02484 0.0 
1.19324 0.986563 0.0 
1.04817 1.02349 0.0 
1.05047 1.02523 0.0 
1.06999 1.02506 0.0 
1.11282 1.02698 0.0 
1.08309 1.02614 0.0 
1.0563 1.01994 0.0 
1.06994 1.01561 0.0 
1.05946 1.02828 0.0 
1.1296 1.02528 0.0 
1.04409 1.01692 0.0 
1.07615 1.02575 0.0 
1.20781 1.00821 0.0 
1.1571 1.02016 0.0 
1.09208 1.02536 0.0 
1.04368 1.02097 0.0 
1.15429 1.02054 0.0 
1.19914 1.00493 0.0 
1.08913 1.02584 0.0 
1.13522 1.02275 0.0 
1.05618 1.02258 0.0 
1.05019 1.02304 0.0 
1.08809 1.02987 0.0 
1.12909 1.02389 0.0 
1.07833 1.02523 0.0 
1.12417 1.01982 0.0 
1.06603 1.01511 0.0 
1.11795 1.02724 0.0 
1.08158 1.02556 0.0 
1.15737 1.02136 0.0 
1.04754 1.01892 0.0 
1.09773 1.01881 0.0 
1.13821 1.02055 0.0 
1.0516 1.01984 0.0 
1.04392 1.02242 0.0 
1.06879 1.02787 0.0 
1.1428 1.02005 0.0 
1.06889 1.02145 0.0 
1.06573 1.02429 0.0 
1.04352 1.01665 0.0 
1.07367 1.02541 0.0 
1.10406 1.02466 0.0 
1.04169 1.01859 0.0 
1.11939 1.02054 0.0 
1.0696 1.02725 0.0 
1.05835 1.02198 0.0 
1.11935 1.02549 0.0 
1.12667 1.02301 0.0 
1.04314 1.01933 0.0 
1.13599 1.02525 0.0 
1.09374 1.02587 0.0 
1.08523 1.01801 0.0 
1.11785 1.02409 0.0 
1.13907 1.02637 0.0 
1.06256 1.02785 0.0 
1.12695 1.01974 0.0 
1.05074 1.02348 0.0 
1.0633 1.02547 0.0 
1.11233 1.0247 0.0 
1.10178 1.02307 0.0 
1.08404 1.02344 0.0 
1.09427 1.02647 0.0 
1.04902 1.02295 0.0 
1.06009 1.02555 0.0 
1.07738 1.02958 0.0 
1.10805 1.02509 0.0 
1.05108 1.02594 0.0 
1.12516 1.02367 0.0 
1.05043 1.02808 0.0 
1.06629 1.01642 0.0 
1.06652 1.01434 0.0 
1.14199 1.02188 0.0 
1.07892 1.02584 0.0 
1.19559 0.999223 0.0 
1.10958 1.02703 0.0 
1.1073 1.02771 0.0 
1.04418 1.01955 0.0 
1.09006 1.02509 0.0 
1.0578 1.02634 0.0 
1.11056 1.02763 0.0 
1.07301 1.02655 0.0 
1.09799 1.02827 0.0 
1.07039 1.02924 0.0 
1.10892 1.02304 0.0 
1.05825 1.02857 0.0 
1.12125 1.01386 0.0 
1.09388 1.02912 0.0 
1.06015 1.02405 0.0 
1.05547 1.02891 0.0 
1.11428 1.02759 0.0 
1.10665 1.01994 0.0 
1.04451 1.01764 0.0 
1.11493 1.01917 0.0 
1.14015 1.01051 0.0 
1.13073 1.02287 0.0 
1.06688 1.02876 0.0 
1.05146 1.02069 0.0 
1.06291 1.01896 0.0 
1.06167 1.02445 0.0 
1.04878 1.01799 0.0 
1.12256 1.0261 0.0 
1.10875 1.02389 0.0 
1.11897 1.0293 0.0 
1.0482 1.01736 0.0 
1.15792 1.02358 0.0 
1.07612 1.02895 0.0 
1.15367 1.02384 0.0 
1.10138 1.02472 0.0 
1.12911 1.02884 0.0 
1.05423 1.025 0.0 
1.11126 1.02883 0.0 
1.18439 0.98799 0.0 
1.05288 1.02749 0.0 
1.04371 1.02166 0.0 
1.05093 1.01627 0.0 
1.12126 1.02353 0.0 
1.08598 1.02799 0.0 
1.0496 1.02417 0.0 
1.05676 1.02963 0.0 
1.06655 1.02102 0.0 
1.05198 1.02643 0.0 
1.04702 1.02566 0.0 
1.14971 1.02385 0.0 
1.13758 1.02162 0.0 
1.17847 0.9944 0.0 
1.05147 1.02856 0.0 
1.16015 0.99431 0.0 
1.11366 1.02384 0.0 
1.13038 1.02595 0.0 
1.05113 1.02416 0.0 
1.05301 1.02401 0.0 
1.15174 1.0229 0.0 
1.06534 1.016 0.0 
1.08248 1.02994 0.0 
1.07328 1.02599 0.0 
1.08923 1.028 0.0 
1.12967 1.02656 0.0 
1.05354 1.02658 0.0 
1.1405 1.0257 0.0 
1.05742 1.02796 0.0 
1.06268 1.02709 0.0 
1.05105 1.02752 0.0 
1.10299 1.02809 0.0 
1.04936 1.02063 0.0 
1.11708 1.02333 0.0 
1.06488 1.02985 0.0 
1.05035 1.02087 0.0 
1.11154 1.02623 0.0 
1.07799 1.02197 0.0 
1.07144 1.02549 0.0 
1.13099 1.02928 0.0 
1.14017 1.02765 0.0 
1.07381 1.02932 0.0 
1.05285 1.02336 0.0 
1.09799 1.02415 0.0 
1.10168 1.02943 0.0 
1.07536 1.02238 0.0 
1.13707 1.02727 0.0 
1.04957 1.02152 0.0 
1.06372 1.02913 0.0 
1.13377 1.02672 0.0 
1.04431 1.02323 0.0 
1.05098 1.02132 0.0 
1.08059 1.02926 0.0 
1.10906 1.02556 0.0 
1.19139 1.0157 0.0 
1.2221 1.01183 0.0 
1.14604 1.02591 0.0 
1.04304 1.01622 0.0 
1.18476 1.01586 0.0 
1.07322 1.03045 0.0 
1.10745 1.02942 0.0 
1.0981 1.02998 0.0 
1.08062 1.02624 0.0 
1.10045 1.02781 0.0 
1.08696 1.02755 0.0 
1.13716 1.02363 0.0 
1.09476 1.0251 0.0 
1.16795 1.0024 0.0 
1.10734 1.02639 0.0 
1.05789 1.02562 0.0 
1.14572 1.027 0.0 
1.07944 1.01886 0.0 
1.06412 1.0321 0.0 
1.06456 1.02455 0.0 
1.17185 0.996948 0.0 
1.15348 0.996211 0.0 
1.08385 1.02708 0.0 
1.14294 1.02369 0.0 
1.18204 0.999564 0.0 
1.19072 0.98629 0.0 
1.04517 1.02581 0.0 
1.04111 1.01618 0.0 
1.06474 1.01779 0.0 
1.06971 1.03332 0.0 
1.04968 1.0163 0.0 
1.18672 1.00496 0.0 
1.05502 1.02312 0.0 
1.1432 1.02283 0.0 
1.04824 1.01945 0.0 
1.08992 1.02373 0.0 
1.05268 1.02691 0.0 
1.13259 1.02373 0.0 
1.16393 0.999018 0.0 
1.04895 1.02525 0.0 
1.09672 1.0216 0.0 
1.14572 1.02015 0.0 
1.14858 1.02625 0.0 
[...]
<PointData>
  <DataArray type = "Float64" Name="Vitesse" NumberOfComponents="3" format="ascii">
0 0 0.0 
0.180969 -0.00741923 0.0 
0 0 0.0 
0.716294 0.00271943 0.0 
0.677591 -0.00191908 0.0 
0.258152 -0.105374 0.0 
0.923054 0.0141466 0.0 
0.905569 0.0167106 0.0 
0.230375 -0.0104045 0.0 
0.0189479 -0.00157626 0.0 
0 0 0.0 
0.00433948 -0.000696756 0.0 
0.0998193 -0.00437883 0.0 
0.0289909 -0.0029101 0.0 
0.56583 -0.00334485 0.0 
0.0729092 -0.00552594 0.0 
0.496256 0.0163423 0.0 
0.0952431 -0.00321224 0.0 
0.120852 -0.00693126 0.0 
0.0411 -0.00356699 0.0 
0.0388923 -0.00321999 0.0 
0 0 0.0 
0 0 0.0 
0.193005 -0.00653125 0.0 
0.152362 -0.00992621 0.0 
0.533979 -0.00262202 0.0 
0.0829347 -0.00725208 0.0 
0.0409896 -0.00300621 0.0 
0.573801 0.0011072 0.0 
0.730877 0.000993075 0.0 
0.747115 0.000948408 0.0 
0.392835 0.0046755 0.0 
0.634398 0.00233182 0.0 
0.955039 0.0274124 0.0 
0.0245415 -0.00320367 0.0 
0.628723 -0.00331438 0.0 
0.0490925 -0.00292542 0.0 
0.393627 -0.00604553 0.0 
0.66825 -0.00114476 0.0 
0.616936 -0.00198848 0.0 
0.409468 -0.00343477 0.0 
0 0 0.0 
0.802834 0.00495397 0.0 
0.252467 -0.00652936 0.0 
-0.018243 0.0630324 0.0 
0.318087 -0.00662483 0.0 
0.485457 -0.00181022 0.0 
1.14697 0.0290989 0.0 
0.671403 -0.00012768 0.0 
0.458801 -0.00417052 0.0 
0.647918 0.000443811 0.0 
0.794158 0.00763842 0.0 
0.337445 -0.00427266 0.0 
0.557059 0.00244723 0.0 
0.478685 -0.0052139 0.0 
0.445648 -0.00687194 0.0 
0.75156 0.000555681 0.0 
0.494367 0.000674165 0.0 
-0.050983 -0.10111 0.0 
0.732137 0.00454199 0.0 
0.761067 0.00318204 0.0 
1.16809 0.0651691 0.0 
0.0736305 -0.00467927 0.0 
0.666262 -0.00213044 0.0 
0.0124798 -0.00135546 0.0 
0.648357 0.0160429 0.0 
0.172886 -0.00473375 0.0 
0.726615 0.00201843 0.0 
0 0 0.0 
0.139676 -0.000262967 0.0 
0.744491 0.00399891 0.0 
0.59013 -0.00350213 0.0 
0.0410763 -0.00295887 0.0 
0.21358 0.00555156 0.0 
0.306628 -0.00454388 0.0 
0.0101666 -0.00196884 0.0 
0.44586 0.00739352 0.0 
0.58886 -0.00415716 0.0 
0 0 0.0 
0.0773838 -0.0053764 0.0 
0.776496 -0.000883113 0.0 
0.0220307 -0.00277447 0.0 
0 0 0.0 
0.126177 -0.00637431 0.0 
0.707484 0.000296544 0.0 
0 0 0.0 
0.425534 -0.00484786 0.0 
0 0 0.0 
0.108999 -0.00801114 0.0 
0.703993 0.00471706 0.0 
0 0 0.0 
0.455611 0.00244295 0.0 
0.252635 -0.00472775 0.0 
0.494236 0.0104153 0.0 
0.764355 0.00844191 0.0 
0.485664 0.000319982 0.0 
0.698065 -0.00111229 0.0 
0 0 0.0 
0.0901804 -0.00476022 0.0 
0.00970421 -0.00173862 0.0 
0.728578 0.00814516 0.0 
0 0 0.0 
0.789287 0.00572746 0.0 
0.161583 -0.0056239 0.0 
0.992669 0.0725672 0.0 
0.638061 0.00669494 0.0 
0.696594 -0.00156651 0.0 
0.0105537 -0.00153785 0.0 
0.643318 -0.00273885 0.0 
0.693739 -0.00164745 0.0 
0.176209 6.43514e-05 0.0 
0 0 0.0 
0.662125 -0.125793 0.0 
1.03804 0.0603062 0.0 
0 0 0.0 
0.339018 -0.010519 0.0 
0.291457 -0.0108797 0.0 
0.508827 -0.00734713 0.0 
0.644282 -0.00224205 0.0 
0.804469 0.00360806 0.0 
0.628259 -0.00354436 0.0 
0.301802 0.0123289 0.0 
0.698104 -0.00167074 0.0 
0.0662871 0.00138885 0.0 
0.515143 0.0127506 0.0 
0.517654 0.00242902 0.0 
0.298065 -0.0104246 0.0 
0.0484361 -0.00540667 0.0 
0 0 0.0 
0.020079 -0.00224001 0.0 
0.0318054 -0.0031477 0.0 
0.640108 -0.00347471 0.0 
0.00650342 -0.00107095 0.0 
0.955036 0.00657754 0.0 
0.0294562 -0.00356047 0.0 
0 0 0.0 
0 0 0.0 
0.0632729 -0.00550085 0.0 
0.0368642 -0.00375066 0.0 
0.691612 -0.00171216 0.0 
0.474848 -0.00756102 0.0 
0.109284 -0.00741207 0.0 
0.0754765 -0.00648368 0.0 
0.515806 -0.00139357 0.0 
0.636238 -0.00363399 0.0 
0.169218 -0.00823244 0.0 
0.349678 -0.00955736 0.0 
0.387026 -0.00213333 0.0 
0.953606 0.00462442 0.0 
0.0545685 0.00155352 0.0 
0.325556 0.00603382 0.0 
0.725988 0.0336973 0.0 
0.863282 -0.0621074 0.0 
1.15449 0.106868 0.0 
0.638687 0.0223255 0.0 
0.458395 -0.0085645 0.0 
0.952853 -0.0174097 0.0 
-0.00996312 0.000519971 0.0 
1.05229 0.0781606 0.0 
0.479385 0.0133005 0.0 
1.18868 0.0562137 0.0 
0.132238 -0.00898641 0.0 
0.187733 -0.00866701 0.0 
0.931994 0.0460221 0.0 
0.806992 -0.0078578 0.0 
0.233563 -0.158589 0.0 
0.376249 0.013041 0.0 
0.903542 0.00363473 0.0 
0.0566882 -0.00601793 0.0 
0.913639 0.0391208 0.0 
0.662322 0.0126338 0.0 
0.843002 -0.0421321 0.0 
0.875231 -0.0293689 0.0 
1.10846 0.021994 0.0 
0.884708 0.0122863 0.0 
0.87828 -0.00414892 0.0 
1.1323 0.0365035 0.0 
1.04203 0.0797204 0.0 
0.279256 -0.152017 0.0 
0.289529 0.00312157 0.0 
0.744723 0.0307469 0.0 
0.279837 -0.0863611 0.0 
0.604885 0.0157985 0.0 
0.939637 0.00159614 0.0 
0.998928 0.0107967 0.0 
0.396997 -0.00426788 0.0 
0.863393 -0.00155684 0.0 
0.0639832 -0.00396123 0.0 
0.544295 -0.00634636 0.0 
0.057259 0.00141505 0.0 
0 0 0.0 
0.0172473 -0.00278527 0.0 
0.965661 0.0195392 0.0 
0.401666 -0.00839751 0.0 
0.0824126 0.00237072 0.0 
0 0 0.0 
0.825819 0.00271862 0.0 
0.858322 -0.0351031 0.0 
0 0 0.0 
0.491437 0.0260393 0.0 
0.264751 0.00224425 0.0 
1.02401 0.0176912 0.0 
0.329412 0.00775788 0.0 
0.848905 -0.0113807 0.0 
0.031062 -0.00285712 0.0 
0.964413 0.0748408 0.0 
0.253015 0.0102787 0.0 
1.00005 0.0699693 0.0 
0.355805 0.0161595 0.0 
0.028231 -0.00332115 0.0 
0.692107 0.0429523 0.0 
0.465131 0.0186651 0.0 
1.01279 0.0082571 0.0 
0.732066 -0.0200042 0.0 
1.0298 0.0158458 0.0 
0.226548 0.00260003 0.0 
0.241328 -0.00842332 0.0 
0.890549 0.00352508 0.0 
0.441072 0.0154922 0.0 
0.507546 -0.00353274 0.0 
0.409788 -0.00959663 0.0 
0.782405 0.00195427 0.0 
0.245114 -0.000587303 0.0 
0.888206 0.0173766 0.0 
0.767207 -0.0129678 0.0 
1.02292 0.0113416 0.0 
0.849599 0.0327353 0.0 
1.02797 0.0138944 0.0 
0.473082 0.019188 0.0 
0.0305358 -0.00411866 0.0 
0.0505225 -0.000788618 0.0 
0.771429 0.000270415 0.0 
0.227969 -0.00189766 0.0 
0.104997 -0.00848116 0.0 
0.303352 -0.00221109 0.0 
0.318932 -0.00856402 0.0 
1.1881 0.0455269 0.0 
0.161999 -0.00466562 0.0 
0.0748035 -0.00666114 0.0 
1.08506 0.0816673 0.0 
0.109987 -0.00173779 0.0 
0.720671 0.00192843 0.0 
0.127751 -0.151128 0.0 
0.837402 -0.0262238 0.0 
0.24913 0.00876144 0.0 
1.0663 0.0274009 0.0 
1.12814 0.0657407 0.0 
0.693396 0.012485 0.0 
0.0472829 0.000481407 0.0 
0.678852 0.00691914 0.0 
0.995884 0.0241898 0.0 
0.0536366 -0.00554444 0.0 
0.928592 0.0169105 0.0 
1.12408 0.0225114 0.0 
0.493577 -0.00571675 0.0 
0.359955 -0.174118 0.0 
0.272386 -0.130608 0.0 
0.134546 -0.0052208 0.0 
0.119648 0.00892266 0.0 
0.863081 0.0176038 0.0 
-0.0382573 -0.130466 0.0 
0.874261 0.0536385 0.0 
1.01749 0.0645017 0.0 
0.837728 0.00835279 0.0 
0.866893 0.00189921 0.0 
0.865253 0.00461224 0.0 
0.366407 -0.00133605 0.0 
0.0427139 -0.00396809 0.0 
1.12832 0.0539989 0.0 
0.785938 -0.00360331 0.0 
0.0685513 0.00171308 0.0 
0.863077 0.00648977 0.0 
0.364881 -0.183512 0.0 
0.660311 -0.0389828 0.0 
0.781449 0.000457242 0.0 
0.607379 0.0365941 0.0 
0.657707 -0.0307297 0.0 
0.269652 -0.172612 0.0 
0.82411 0.0021381 0.0 
0.64878 0.00137456 0.0 
0.6816 0.0161293 0.0 
0.796487 0.0397972 0.0 
1.06241 0.0146064 0.0 
0.693504 0.00174686 0.0 
0.811176 0.00306724 0.0 
0.409365 0.0191181 0.0 
0.0145429 -0.00243074 0.0 
0.883784 -2.21997e-05 0.0 
0.825952 0.00299038 0.0 
0.722133 -0.0489494 0.0 
0.287157 0.00802683 0.0 
0.282223 -0.000185127 0.0 
0.533996 0.0120099 0.0 
0.378059 0.00626962 0.0 
0.804771 0.0576814 0.0 
1.04866 0.0271797 0.0 
0.539666 0.00794474 0.0 
0.486805 -0.00778728 0.0 
0.792848 0.00901354 0.0 
0.0417562 0.00101175 0.0 
0.847042 0.00677465 0.0 
0.712377 0.000699873 0.0 
0.286564 0.0130005 0.0 
0.434746 0.0131557 0.0 
1.00728 0.0222415 0.0 
0.593814 0.00657567 0.0 
0.775255 0.00136217 0.0 
0.625741 0.0062925 0.0 
0.376031 0.0178745 0.0 
0.808552 -0.0122077 0.0 
0.815279 0.00136565 0.0 
0.208453 -0.00020381 0.0 
0.675769 0.00384941 0.0 
0.884848 -0.0224415 0.0 
1.08719 0.0414322 0.0 
0.418378 0.0209438 0.0 
0.840997 0.0428707 0.0 
0.918563 0.0221441 0.0 
0.713044 0.00259064 0.0 
0.591973 -0.000906453 0.0 
0.640234 -0.00302336 0.0 
0.856507 0.00262555 0.0 
0.800398 0.0432318 0.0 
0.951086 0.0310865 0.0 
1.08725 0.0227069 0.0 
0.740015 0.00181625 0.0 
1.06541 0.0689282 0.0 
0.665255 0.00432027 0.0 
1.18022 0.090309 0.0 
0.0682858 -0.00680195 0.0 
0 0 0.0 
0.638429 -0.00353919 0.0 
0.857886 0.00525183 0.0 
0.115248 -0.161703 0.0 
0.87005 0.00294548 0.0 
0.912622 0.00368605 0.0 
0.397676 0.0181585 0.0 
0.765128 0.000188067 0.0 
1.0321 0.0451401 0.0 
0.906194 0.00280718 0.0 
0.939971 0.01349 0.0 
0.959424 0.00593857 0.0 
1.1053 0.0319772 0.0 
0.590105 0.00232271 0.0 
1.14783 0.0603934 0.0 
0.133507 0.0427976 0.0 
1.01347 0.00944092 0.0 
0.810031 0.0184415 0.0 
1.17563 0.0728419 0.0 
0.903236 0.00136039 0.0 
0.36681 0.00376822 0.0 
0.147113 0.00431532 0.0 
0.336848 0.0133841 0.0 
0.148367 0.0871428 0.0 
0.633173 0.0051949 0.0 
1.1045 0.0363104 0.0 
0.486863 0.0123479 0.0 
0.249996 -0.00994653 0.0 
0.837903 0.0179842 0.0 
0.171357 0.00224575 0.0 
0.819976 -0.000825233 0.0 
0.653175 0.00190258 0.0 
0.99295 -0.00183761 0.0 
0.104533 0.00113977 0.0 
0.835575 -0.0651404 0.0 
1.06572 0.021529 0.0 
0.824608 -0.0509643 0.0 
0.71836 6.0167e-06 0.0 
0.982488 -0.0118531 0.0 
0.956927 0.0460302 0.0 
0.971201 0.00314903 0.0 
-0.0621595 -0.0730854 0.0 
1.13933 0.074519 0.0 
0.705288 0.0467917 0.0 
0 0 0.0 
0.644175 0.00490631 0.0 
0.976851 0.0099129 0.0 
0.930075 0.0562199 0.0 
1.18785 0.0716424 0.0 
0.449312 -0.00794435 0.0 
1.08972 0.0697341 0.0 
1.08983 0.0870108 0.0 
0.801906 -0.0375949 0.0 
0.593183 0.00547773 0.0 
-0.0016249 -0.0394529 0.0 
1.18844 0.0882801 0.0 
-0.0682795 0.119501 0.0 
0.652866 0.00337517 0.0 
0.830082 -0.00659667 0.0 
0.910263 0.0493458 0.0 
0.874177 0.040281 0.0 
0.7637 -0.0384822 0.0 
0.0449164 -0.0053034 0.0 
1.08206 0.0190046 0.0 
0.896085 0.010104 0.0 
0.966714 0.00834772 0.0 
0.864299 -0.00753889 0.0 
1.08498 0.0640827 0.0 
0.854485 -0.0226407 0.0 
1.12813 0.0594099 0.0 
1.04303 0.0358251 0.0 
1.15471 0.0833142 0.0 
0.940442 0.00469812 0.0 
0.496793 0.0170022 0.0 
0.620506 0.00512335 0.0 
1.1535 0.0462429 0.0 
0.519223 0.016641 0.0 
0.818395 0.00220895 0.0 
0.517332 -0.00616207 0.0 
0.866044 0.00940111 0.0 
1.00551 -0.0154191 0.0 
0.953427 -0.0290999 0.0 
1.09214 0.0264557 0.0 
0.803399 0.0337211 0.0 
0.67855 -0.00127244 0.0 
1.01094 0.00724527 0.0 
0.560651 -0.00591843 0.0 
0.925165 -0.0216454 0.0 
0.611269 0.0247967 0.0 
1.13608 0.0457245 0.0 
0.885444 -0.0140853 0.0 
0.899585 0.0686635 0.0 
0.572149 0.0189997 0.0 
1.06136 0.0182087 0.0 
0.773202 0.00215269 0.0 
0.642743 -0.15687 0.0 
0.454319 -0.16716 0.0 
0.89064 -0.0374284 0.0 
0 0 0.0 
0.634553 -0.138237 0.0 
1.1344 0.0321369 0.0 
1.00232 0.00531085 0.0 
1.04185 0.0094929 0.0 
0.88213 0.00597435 0.0 
0.92867 0.00457887 0.0 
0.947685 0.00796042 0.0 
0.715173 -0.0062344 0.0 
0.755765 -0.000149574 0.0 
0.13691 0.0206183 0.0 
0.831348 0.00250997 0.0 
0.97571 0.0383674 0.0 
0.942235 -0.0407972 0.0 
0.253621 -0.00481039 0.0 
1.1994 0.0573749 0.0 
0.826211 0.0127599 0.0 
0.0289021 0.00999944 0.0 
-0.0735363 0.157124 0.0 
0.927998 0.00772633 0.0 
0.751904 -0.017654 0.0 
0.11214 -0.078182 0.0 
-0.0469523 -0.113844 0.0 
1.12025 0.0990157 0.0 
0 0 0.0 
0.152097 -0.00977957 0.0 
1.19528 0.048017 0.0 
0 0 0.0 
0.265208 -0.118398 0.0 
0.75467 0.0243148 0.0 
0.703059 -0.012998 0.0 
0.351231 0.0102139 0.0 
0.655161 -0.00244383 0.0 
1.11181 0.0707456 0.0 
0.698266 -0.000717283 0.0 
0.0413139 0.0666148 0.0 
1.03665 0.0721789 0.0 
0.478895 -0.00286055 0.0 
0.568616 0.000402408 0.0 
0.918293 -0.046364 0.0 
0.719559 0.024603 0.0 
0.768625 0.0555307 0.0 
0.877606 0.00310408 0.0 
0.892904 0.0041461 0.0 
-0.0395217 -0.124521 0.0 
0.686112 0.0465495 0.0 
0.461676 0.00926033 0.0 
0.73758 -0.000566598 0.0 
0.05824 -0.0013599 0.0 
0.585268 -0.0038803 0.0 
1.19233 0.0630989 0.0 
1.04629 0.0442222 0.0 
1.08235 0.08946 0.0 
0.536895 0.00900153 0.0 
-0.00163614 -0.116652 0.0 
0.105667 -0.150686 0.0 
0.0119794 -0.00198171 0.0 
0.47304 0.027423 0.0 
1.0018 0.0125341 0.0 
0.877507 0.00316891 0.0 
1.12743 0.039156 0.0 
0.141818 0.00466114 0.0 
0.477868 0.00519713 0.0 
0.0987706 -0.00375227 0.0 
1.01669 0.0475342 0.0 
0.568656 0.00600744 0.0 
0.867303 0.0495013 0.0 
1.13047 0.0927336 0.0 
1.18349 0.0500523 0.0 
-0.0332825 -0.019678 0.0 
0.0440513 -0.00522508 0.0 
0 0 0.0 
0.894794 0.0395377 0.0 
-0.0286521 -0.134055 0.0 
0.287203 0.000867641 0.0 
0.933499 -0.00267943 0.0 
0.735019 -0.000746838 0.0 
0.0788128 -0.0073704 0.0 
0.186916 0.000538898 0.0 
-0.05195 -0.0500386 0.0 
1.17265 0.0495072 0.0 
1.15703 0.0418574 0.0 
0.394848 -0.172291 0.0 
1.12824 0.0200485 0.0 
0.482069 0.0185015 0.0 
0.593815 0.0312614 0.0 
0.941287 0.0637785 0.0 
0.643263 0.0305912 0.0 
0.153452 -0.00359178 0.0 
0.503544 -0.174584 0.0 
0.0192153 0.0650185 0.0 
0.653758 0.0214065 0.0 
0 0 0.0 
1.06797 0.0129922 0.0 
0.966794 -0.00536611 0.0 
1.11321 0.0674111 0.0 
0.653602 0.000414073 0.0 
0.22612 -0.0690913 0.0 
1.13816 0.0840452 0.0 
0.00215524 -0.0493532 0.0 
1.02315 0.0807996 0.0 
0.121737 -0.0089658 0.0 
0.765742 0.000469871 0.0 
0.971526 0.0180057 0.0 
0.360462 0.00115661 0.0 
0.32717 0.00484665 0.0 
0.665978 -0.144252 0.0 
0 0 0.0 
0.270215 -0.00135845 0.0 
0.0794426 -0.00741718 0.0 
0.987603 0.00800813 0.0 
0.967842 0.010241 0.0 
0.056091 -0.0763149 0.0 
-0.106258 0.169189 0.0 
0.574148 -0.00227552 0.0 
0 0 0.0 
0.457706 -0.158496 0.0 
0.781266 0.000897794 0.0 
0 0 0.0 
0.746229 -0.0278159 0.0 
-0.0364338 0.105964 0.0 
0.986839 0.0564783 0.0 
1.21791 0.0829022 0.0 
0.52198 0.00373303 0.0 
0.0806361 0.00159747 0.0 
0.897559 -0.0654828 0.0 
0.596445 -0.00448369 0.0 
0.359474 -0.16611 0.0 
0.0858687 -0.144236 0.0 
0 0 0.0 
0.981003 0.0632688 0.0 
0.0696147 -0.0412267 0.0 
0.236701 -0.170738 0.0 
0.0749504 -0.160492 0.0 
0.145347 0.000594494 0.0 
0.0702521 -0.00514267 0.0 
-0.0606866 -0.0218 0.0 
0.60699 0.000845901 0.0 
0.59136 -0.00500854 0.0 
0.393975 0.0154985 0.0 
1.11057 0.0286853 0.0 
0.06445 0.0010844 0.0 
0.358447 -0.00252901 0.0 
1.08906 0.0143058 0.0 
0.728813 0.0124599 0.0 
0.55027 0.000503871 0.0 
0.901528 0.0510725 0.0 
0.779704 -0.0268351 0.0 
1.10983 0.0248978 0.0 
0 0 0.0 
0 0 0.0 
1.04229 0.0112417 0.0 
0.397437 -0.180891 0.0 
0.493018 0.0212114 0.0 
0.868001 0.0681492 0.0 
0.590162 0.00763967 0.0 
0.501161 0.00803315 0.0 
1.04964 0.00677776 0.0 
0.858426 0.0251343 0.0 
0.715794 -0.0361199 0.0 
0.512179 -0.00445302 0.0 
0 0 0.0 
0.0724329 -0.00596653 0.0 
-0.0310979 -0.123005 0.0 
0.133321 0.00360917 0.0 
1.1095 0.0178988 0.0 
0.619109 0.0309048 0.0 
0.861697 0.00280597 0.0 
1.10419 0.0482662 0.0 
0.604441 -0.00262602 0.0 
0.104621 -0.00765604 0.0 
0.79571 -0.0219093 0.0 
-0.0503493 -0.040226 0.0 
0.0850173 0.00676264 0.0 
0.347165 -0.00855617 0.0 
0 0 0.0 
0.214625 -0.00641776 0.0 
1.08801 0.0309849 0.0 
0.885441 0.0052077 0.0 
0.817686 0.0322708 0.0 
0.101447 0.000358338 0.0 
0.923868 -0.0126092 0.0 
0.832935 -0.00357299 0.0 
0.379246 -0.00984866 0.0 
0.210486 0.00643065 0.0 
0.543345 -0.00374632 0.0 
0.296417 0.00993022 0.0 
0.0496706 -0.00227558 0.0 
0.0596953 0.000158794 0.0 
0.956256 0.0104592 0.0 
0.594836 -0.167116 0.0 
0.0584475 -0.154735 0.0 
0.568362 0.0351663 0.0 
0.980255 0.0810506 0.0 
0.978382 0.0165878 0.0 
1.21243 0.0833537 0.0 
0.960378 -0.000225688 0.0 
-0.00307298 0.0482326 0.0 
0 0 0.0 
1.07839 0.0321027 0.0 
0.475864 0.00337044 0.0 
0.386329 0.0127027 0.0 
0.325171 0.00196694 0.0 
0.287994 -0.0095209 0.0 
0 0 0.0 
0.33245 -0.186813 0.0 
0.298207 -0.00186594 0.0 
0.883082 -0.0453528 0.0 
0.0251796 -0.0869755 0.0 
0 0 0.0 
0.0876027 -0.132785 0.0 
1.03272 -0.0173125 0.0 
0.394462 0.0106313 0.0 
1.12333 0.0965462 0.0 
1.12347 0.0166372 0.0 
0.389408 -0.00975518 0.0 
1.14123 0.0249459 0.0 
0.396364 -0.00377374 0.0 
0.616307 -0.169489 0.0 
0.416214 0.00507101 0.0 
1.21019 0.0683038 0.0 
0.908495 0.00566093 0.0 
0.922519 0.00839353 0.0 
0.817707 0.0018527 0.0 
0.561427 -0.00439937 0.0 
0.139211 0.00330883 0.0 
0.173642 -0.0169071 0.0 
-0.134134 0.177176 0.0 
0.953262 -0.0107579 0.0 
0.443772 -0.00159497 0.0 
0.0490464 0.0223488 0.0 
0.235058 -0.00812124 0.0 
0.940215 0.0775122 0.0 
0.396811 0.0157591 0.0 
1.06903 0.0114771 0.0 
0.0892352 -0.00292138 0.0 
0.210204 -0.00908972 0.0 
0.323632 0.000673302 0.0 
0.290334 -0.00850097 0.0 
0.359185 -0.179494 0.0 
0.887737 0.0627841 0.0 
0.148321 -0.00980533 0.0 
0.248055 -0.0106168 0.0 
0.843342 0.0103269 0.0 
0.135939 -0.00248986 0.0 
0.689708 -0.0019085 0.0 
0.644883 -0.100103 0.0 
0.00639873 0.00849777 0.0 
0.17286 -0.00213785 0.0 
0 0 0.0 
0.0472163 -0.000148247 0.0 
1.05202 0.0152971 0.0 
0.844191 0.01222 0.0 
1.16761 0.101126 0.0 
0 0 0.0 
0.541899 0.00636493 0.0 
0.406904 0.00217312 0.0 
0.435022 0.000462509 0.0 
-0.0222348 -0.120127 0.0 
0.0483936 -0.00287406 0.0 
0.426316 -0.175292 0.0 
0.608178 -0.0152534 0.0 
1.13262 0.0277251 0.0 
0.146595 -0.00846384 0.0 
0.995049 0.00227298 0.0 
0.396456 -0.00834653 0.0 
1.05797 0.00933501 0.0 
0.272966 -0.0107496 0.0 
0.711514 -0.00125481 0.0 
0.745981 0.00256218 0.0 
-0.0471111 -0.078737 0.0 
1.18266 0.0810189 0.0 
0.36634 0.0068236 0.0 
0.830981 0.00145239 0.0 
0.422977 -0.00284425 0.0 
1.20882 0.0765897 0.0 
0.175411 -0.00991986 0.0 
0.727089 -0.000607132 0.0 
0.660512 -0.000632493 0.0 
1.07243 0.0447099 0.0 
0.951768 0.0129264 0.0 
0.939527 0.0605022 0.0 
0.00645477 -0.0780334 0.0 
0.864092 0.00334459 0.0 
0.369472 -0.00702357 0.0 
0.433416 -0.000586317 0.0 
0.950126 0.0687764 0.0 
0.639893 -0.128821 0.0 
0.351419 -0.00148558 0.0 
1.13915 0.0196742 0.0 
-0.128442 0.161345 0.0 
0.0461927 -0.0177668 0.0 
-0.00521693 0.0788535 0.0 
-0.0464673 -0.113743 0.0 
0.705234 0.00146328 0.0 
1.15198 0.0922313 0.0 
0.193897 -0.00952277 0.0 
1.18096 0.0381136 0.0 
-0.0101837 -0.146921 0.0 
0.799952 0.0465729 0.0 
0.688922 0.0494143 0.0 
0.984934 0.0531135 0.0 
-0.00105455 -0.0273872 0.0 
0.106406 -0.00848419 0.0 
0.717243 0.0392378 0.0 
0 0 0.0 
0.764755 0.0125934 0.0 
0.175677 -0.00343543 0.0 
0.0966209 -0.00809035 0.0 
0.299893 -0.148175 0.0 
0.427771 -0.00594792 0.0 
0.0640653 0.0368969 0.0 
-0.0111906 -0.032914 0.0 
0.990765 0.0335876 0.0 
0.936614 0.0029767 0.0 
0.986765 0.00896515 0.0 
0.571733 -0.104783 0.0 
0.0287112 -0.00384698 0.0 
0.0376442 -0.00475493 0.0 
0.128074 0.0045991 0.0 
0.930925 -0.00692446 0.0 
0 0 0.0 
0.571164 0.0315653 0.0 
0.369741 -0.00316049 0.0 
0.818721 -0.0184263 0.0 
0.384986 -0.167321 0.0 
1.21016 0.0869617 0.0 
0.904201 0.00672009 0.0 
0.355772 0.0101158 0.0 
0.0458343 -0.00198236 0.0 
1.02234 -0.00976098 0.0 
1.16613 0.0362311 0.0 
0.0202062 -0.00308884 0.0 
0.304669 0.0150889 0.0 
1.07106 0.00875109 0.0 
0.703121 -0.00128926 0.0 
1.06465 0.00127617 0.0 
0.999276 0.0310293 0.0 
0.385826 -0.00055516 0.0 
0.606917 -0.0899575 0.0 
1.18835 0.0971097 0.0 
0.217524 -0.00361537 0.0 
0.859693 0.0704495 0.0 
0.246149 -0.00118717 0.0 
0.994113 0.013171 0.0 
0.0350617 -0.100189 0.0 
0.433678 -0.178541 0.0 
0.53015 -0.172628 0.0 
0.0734982 -0.121358 0.0 
0.316158 -0.0100389 0.0 
0.493336 -0.00567451 0.0 
0.909322 -0.0560375 0.0 
0.0894189 0.0108135 0.0 
-0.0240299 0.107153 0.0 
0.885709 0.0336934 0.0 
0.411081 0.00276246 0.0 
1.11558 0.0837218 0.0 
0.426946 -0.00884481 0.0 
0.547942 -0.00254969 0.0 
0.0227207 -0.00296578 0.0 
1.20011 0.063229 0.0 
0.0598714 -0.00172515 0.0 
0.513941 0.0143022 0.0 
0.91392 -0.0318806 0.0 
0.218485 -0.0381974 0.0 
0.373146 0.0197252 0.0 
0.0762212 -0.002131 0.0 
0.486029 -0.163478 0.0 
0.646485 -0.149297 0.0 
0.680203 -0.0156157 0.0 
-0.0687679 -0.0619782 0.0 
0.593323 -0.00421875 0.0 
0.353219 0.0142963 0.0 
0.123832 -0.0606351 0.0 
0.0543296 0.027763 0.0 
0.121819 -0.128646 0.0 
0.596402 -0.162432 0.0 
0.817517 0.0564987 0.0 
1.0788 0.0927006 0.0 
1.12223 0.102842 0.0 
0.796325 0.0019928 0.0 
1.16734 0.0911613 0.0 
0.579169 -0.00302755 0.0 
1.09172 0.0605424 0.0 
0.571422 0.00974329 0.0 
0.587363 0.0394285 0.0 
1.01927 -0.00430423 0.0 
0.52772 -0.159449 0.0 
0 0 0.0 
1.15963 0.0737463 0.0 
0.0118829 0.0809362 0.0 
0.997832 -0.00739238 0.0 
0.234577 -0.110556 0.0 
0.0494015 -0.00507085 0.0 
-0.00977119 -0.122259 0.0 
0.0693228 0.0412685 0.0 
0.59787 -0.0463382 0.0 
0.385687 0.0105991 0.0 
0.550577 0.0230838 0.0 
0.784616 0.000946814 0.0 
1.12559 0.0772721 0.0 
0.913412 0.0331926 0.0 
0.459295 0.0166421 0.0 