<VTKFile type="UnstructuredGrid" version="0.1" byte_order="LittleEndian">
  <UnstructuredGrid>
    <Piece NumberOfPoints="16441" NumberOfCells="32379">
      <Points>
        <DataArray type = "Float64" NumberOfComponents="3" format="ascii">
1.28323 1.00973 0.0 
1.21478 1.0185 0.0 
1.20753 0.997269 0.0 
1.2297 1.00712 0.0 
1.22147 1.01833 0.0 
1.15846 1.01145 0.0 
1.28854 0.980219 0.0 
1.21759 1.01849 0.0 
1.20331 1.01837 0.0 
1.29241 0.984116 0.0 
1.35097 0.97161 0.0 
1.26019 1.00509 0.0 
1.26294 0.988051 0.0 
1.2161 1.0187 0.0 
1.3611 1.00074 0.0 
1.2202 1.01866 0.0 
1.15132 1.01388 0.0 
1.20994 1.01899 0.0 
1.21919 1.01825 0.0 
1.15473 1.01103 0.0 
1.20276 1.0034 0.0 
1.21639 0.994835 0.0 
1.29856 1.00791 0.0 
1.27991 1.00617 0.0 
1.25671 1.00947 0.0 
1.27979 0.991626 0.0 
1.27767 0.987845 0.0 
1.22327 1.01846 0.0 
1.21724 1.01915 0.0 
1.15728 1.01024 0.0 
1.20157 1.01997 0.0 
1.19962 1.0204 0.0 
1.22014 1.00654 0.0 
1.34845 0.970772 0.0 
1.20639 1.0014 0.0 
1.21969 1.00841 0.0 
1.35968 1.00364 0.0 
1.20473 0.996425 0.0 
1.19123 1.01903 0.0 
1.25685 0.992888 0.0 
1.3302 1.00466 0.0 
1.28792 0.97413 0.0 
1.31618 1.00256 0.0 
1.35111 0.973829 0.0 
1.28073 0.994275 0.0 
1.28923 1.00899 0.0 
1.32242 0.982013 0.0 
1.28848 1.01214 0.0 
1.19128 1.0175 0.0 
1.20193 0.999489 0.0 
1.35493 0.969857 0.0 
1.3284 0.997607 0.0 
1.21763 0.998927 0.0 
1.21314 1.01903 0.0 
1.17533 1.01876 0.0 
1.19345 0.994941 0.0 
1.14839 1.00944 0.0 
1.17603 1.0179 0.0 
1.27346 1.01114 0.0 
1.25818 0.985939 0.0 
1.22404 1.00734 0.0 
1.2167 1.00715 0.0 
1.27794 1.01355 0.0 
1.32975 0.973049 0.0 
1.26379 0.97803 0.0 
1.28166 0.975756 0.0 
1.17006 1.01901 0.0 
1.21138 1.01937 0.0 
1.17315 1.01871 0.0 
1.23491 1.01133 0.0 
1.21503 1.00251 0.0 
1.30168 1.00911 0.0 
1.26009 1.0005 0.0 
1.24651 1.00583 0.0 
1.34556 0.970009 0.0 
1.3228 0.974934 0.0 
1.20769 1.00366 0.0 
1.20036 0.996089 0.0 
1.1922 0.995405 0.0 
1.33044 0.978164 0.0 
1.28968 0.981415 0.0 
1.1468 1.00927 0.0 
1.22718 0.99842 0.0 
1.33415 1.00268 0.0 
1.25596 1.01214 0.0 
1.21505 1.01927 0.0 
1.25063 0.985413 0.0 
1.25245 0.98176 0.0 
1.20786 1.01932 0.0 
1.35538 0.97525 0.0 
1.35497 1.00618 0.0 
1.20721 0.996139 0.0 
1.2849 1.01174 0.0 
1.16111 1.01124 0.0 
1.20595 1.01913 0.0 
1.26034 1.01226 0.0 
1.34699 0.969092 0.0 
1.28834 1.00528 0.0 
1.24444 1.00285 0.0 
1.29292 0.980231 0.0 
1.35259 0.976967 0.0 
1.1569 1.01091 0.0 
1.20919 0.996827 0.0 
1.19827 1.00277 0.0 
1.14839 1.00652 0.0 
1.15353 1.01181 0.0 
1.3409 0.971558 0.0 
1.1728 1.01503 0.0 
1.29081 0.995551 0.0 
1.15408 1.00969 0.0 
1.16523 1.02314 0.0 
1.3465 0.971702 0.0 
1.32055 0.971841 0.0 
1.15321 1.01115 0.0 
1.23274 1.00751 0.0 
1.29207 1.01198 0.0 
1.285 1.01094 0.0 
1.27652 0.985475 0.0 
1.21427 0.995157 0.0 
1.34835 0.972427 0.0 
1.17199 1.01383 0.0 
1.15595 1.01172 0.0 
1.29827 1.0069 0.0 
1.21289 0.99677 0.0 
1.19587 1.0194 0.0 
1.20397 0.997332 0.0 
1.15309 1.01047 0.0 
1.15985 1.0172 0.0 
1.28506 1.01246 0.0 
1.25948 0.978256 0.0 
1.18817 1.01584 0.0 
1.27023 0.976194 0.0 
1.32571 0.973063 0.0 
1.2822 1.003 0.0 
1.18799 1.01667 0.0 
1.20651 1.00001 0.0 
1.32271 0.982885 0.0 
1.1668 1.01808 0.0 
1.32362 1.00414 0.0 
1.16203 1.01436 0.0 
1.25443 0.98474 0.0 
1.33125 0.973987 0.0 
1.25634 0.979062 0.0 
1.20225 0.99667 0.0 
1.27851 0.995661 0.0 
1.28692 0.98368 0.0 
1.19239 1.01692 0.0 
1.27644 0.978508 0.0 
1.15221 1.0062 0.0 
1.35046 0.97834 0.0 
1.1654 1.0119 0.0 
1.3042 0.976182 0.0 
1.2998 0.980278 0.0 
1.32141 0.973498 0.0 
1.25446 1.01427 0.0 
1.17455 1.01561 0.0 
1.20511 1.00466 0.0 
1.18275 1.01676 0.0 
1.35416 0.974397 0.0 
1.21237 0.995524 0.0 
1.33141 1.00585 0.0 
1.19527 1.01741 0.0 
1.35521 0.977694 0.0 
1.26717 0.980553 0.0 
1.20977 0.995879 0.0 
1.18632 1.01385 0.0 
1.29437 0.989072 0.0 
1.19526 0.994941 0.0 
1.16862 1.01711 0.0 
1.28281 0.97345 0.0 
1.1767 1.01628 0.0 
1.33423 0.978678 0.0 
1.32628 0.979081 0.0 
1.18567 1.01818 0.0 
1.31305 0.99746 0.0 
1.20729 0.996704 0.0 
1.27814 0.98648 0.0 
1.32885 0.991455 0.0 
1.31726 1.00468 0.0 
1.27403 1.0025 0.0 
1.3081 0.977771 0.0 
1.19767 0.995927 0.0 
1.21378 0.999852 0.0 
1.2667 0.99708 0.0 
1.20366 1.01896 0.0 
1.24319 1.01141 0.0 
1.24876 1.00465 0.0 
1.1988 1.01838 0.0 
1.33761 1.00642 0.0 
1.20434 1.00022 0.0 
1.25762 0.984741 0.0 
1.30384 0.984453 0.0 
1.24653 1.00366 0.0 
1.1899 1.01828 0.0 
1.27861 1.0095 0.0 
1.2118 1.01865 0.0 
1.20297 1.01956 0.0 
1.25078 1.01196 0.0 
1.16324 1.01813 0.0 
1.34463 0.966458 0.0 
1.34434 0.972715 0.0 
1.17032 0.99897 0.0 
1.26463 1.01001 0.0 
1.19497 0.996137 0.0 
1.18095 1.01628 0.0 
1.25256 0.999664 0.0 
1.28812 1.00721 0.0 
1.22294 1.018 0.0 
1.26196 0.982879 0.0 
1.29676 1.00872 0.0 
1.3243 1.00549 0.0 
1.17831 1.01727 0.0 
1.20534 1.01848 0.0 
1.16239 1.01234 0.0 
1.21873 0.997569 0.0 
1.29232 0.976971 0.0 
1.35477 0.968803 0.0 
1.17412 1.01698 0.0 
1.32286 0.999273 0.0 
1.17091 1.0157 0.0 
1.24474 1.00673 0.0 
1.15546 1.00358 0.0 
1.22083 1.01782 0.0 
1.26302 1.01341 0.0 
1.19198 0.998389 0.0 
1.17497 1.01749 0.0 
1.37622 0.971522 0.0 
1.18496 1.01662 0.0 
1.33699 0.970596 0.0 
1.2291 1.00947 0.0 
1.28425 0.980169 0.0 
1.16876 1.0139 0.0 
1.15631 1.00966 0.0 
1.25863 0.983669 0.0 
1.29782 0.978167 0.0 
1.19982 0.996897 0.0 
1.26593 1.0142 0.0 
1.32456 0.98347 0.0 
1.21787 1.00502 0.0 
1.16845 1.01852 0.0 
1.34022 0.975595 0.0 
1.35194 1.00397 0.0 
1.3712 0.972535 0.0 
1.34384 0.969199 0.0 
1.29999 0.992721 0.0 
1.21674 1.0043 0.0 
1.31065 0.979915 0.0 
1.28084 0.984757 0.0 
1.19225 1.01812 0.0 
1.17904 1.01782 0.0 
1.27385 1.00988 0.0 
1.22558 1.00968 0.0 
1.19669 1.01865 0.0 
1.22259 1.00783 0.0 
1.37478 0.97296 0.0 
1.29725 0.973287 0.0 
1.31176 0.976892 0.0 
1.20007 1.01884 0.0 
1.31759 0.982761 0.0 
1.2697 0.978321 0.0 
1.22262 1.0029 0.0 
1.15815 1.01648 0.0 
1.16245 1.01174 0.0 
1.36092 1.00224 0.0 
1.17095 1.01761 0.0 
1.3698 0.970865 0.0 
1.32907 0.980361 0.0 
1.17801 1.01672 0.0 
1.25799 1.01121 0.0 
1.19428 1.01864 0.0 
1.28444 0.99067 0.0 
1.29327 1.00654 0.0 
1.22393 1.00827 0.0 
1.15988 1.01199 0.0 
1.26698 0.992744 0.0 
1.26617 0.987468 0.0 
1.22047 1.00347 0.0 
1.34413 1.00439 0.0 
1.26807 0.977329 0.0 
1.17222 1.01817 0.0 
1.27859 0.974718 0.0 
1.25384 1.01002 0.0 
1.18406 1.01751 0.0 
1.33377 0.98047 0.0 
1.24452 0.988899 0.0 
1.21885 1.00758 0.0 
1.26858 1.00653 0.0 
1.21012 1.00261 0.0 
1.22632 1.00074 0.0 
1.16747 1.01243 0.0 
1.33724 0.976454 0.0 
1.28428 0.981464 0.0 
1.18022 1.01589 0.0 
1.20702 0.997707 0.0 
1.20891 1.00018 0.0 
1.26969 0.986763 0.0 
1.20732 1.01861 0.0 
1.18771 1.019 0.0 
1.16612 1.0153 0.0 
1.35609 0.97633 0.0 
1.24604 0.990527 0.0 
1.25529 0.986974 0.0 
1.27607 0.980062 0.0 
1.25249 0.987967 0.0 
1.18313 1.01854 0.0 
1.2738 0.98737 0.0 
1.32378 0.973997 0.0 
1.2637 0.981612 0.0 
1.18035 1.01861 0.0 
1.21856 1.00303 0.0 
1.18171 1.01764 0.0 
1.15442 1.01252 0.0 
1.16356 1.01363 0.0 
1.16939 1.01511 0.0 
1.3049 0.976967 0.0 
1.20606 0.997958 0.0 
1.19979 1.01959 0.0 
1.26959 1.00932 0.0 
1.36185 0.976694 0.0 
1.1995 1.00152 0.0 
1.2518 1.00128 0.0 
1.16239 1.01295 0.0 
1.24576 1.01092 0.0 
1.16448 1.01429 0.0 
1.33808 0.978065 0.0 
1.34249 0.979794 0.0 
1.26807 0.998772 0.0 
1.30305 0.983298 0.0 
1.16668 1.01326 0.0 
1.16366 1.01494 0.0 
1.26636 0.984623 0.0 
1.25976 0.987755 0.0 
1.27475 0.988751 0.0 
1.21343 1.01834 0.0 
1.27245 0.989948 0.0 
1.21345 1.00511 0.0 
1.271 0.979454 0.0 
1.17691 0.997634 0.0 
1.33801 0.984868 0.0 
1.32884 0.998956 0.0 
1.26859 0.989658 0.0 
1.18098 1.01677 0.0 
1.32607 0.993272 0.0 
1.2291 0.996716 0.0 
1.30472 0.973099 0.0 
1.15795 1.01347 0.0 
1.34594 0.974639 0.0 
1.22258 1.00005 0.0 
1.34173 0.9707 0.0 
1.19216 0.997139 0.0 
1.25419 0.989355 0.0 
1.16129 1.01322 0.0 
1.28056 1.01324 0.0 
1.28684 1.00635 0.0 
1.16708 1.01612 0.0 
1.26013 0.981124 0.0 
1.15956 1.01272 0.0 
1.25133 1.00713 0.0 
1.22576 1.01065 0.0 
1.25749 0.988643 0.0 
1.34584 0.97723 0.0 
1.31179 1.0065 0.0 
1.34242 0.972091 0.0 
1.28195 1.0104 0.0 
1.31541 0.989964 0.0 
1.16567 1.01732 0.0 
1.23946 0.991385 0.0 
1.15776 1.01417 0.0 
1.16335 1.01579 0.0 
1.29132 0.990736 0.0 
1.33381 0.988552 0.0 
1.17363 1.01621 0.0 
1.15502 1.00891 0.0 
1.27453 0.991449 0.0 
1.33942 0.991016 0.0 
1.35105 0.983594 0.0 
1.33537 0.97533 0.0 
1.33621 0.987131 0.0 
1.19814 1.01916 0.0 
1.25709 0.982971 0.0 
1.24264 1.00201 0.0 
1.1883 1.01769 0.0 
1.18531 1.02149 0.0 
1.15964 1.01445 0.0 
1.3172 0.983713 0.0 
1.24848 0.993238 0.0 
1.22186 1.00843 0.0 
1.1606 1.01513 0.0 
1.29821 1.00585 0.0 
1.27848 0.982106 0.0 
1.35197 0.979104 0.0 
1.16653 1.01933 0.0 
1.33374 0.970918 0.0 
1.36972 0.974355 0.0 
1.35836 1.00504 0.0 
1.24243 1.00082 0.0 
1.30006 0.973653 0.0 
1.33286 0.977095 0.0 
1.24851 0.987553 0.0 
1.21269 1.00041 0.0 
1.21165 1.00386 0.0 
1.21113 0.99649 0.0 
1.16255 1.0173 0.0 
1.3386 0.97932 0.0 
1.19512 1.00104 0.0 
1.33532 0.971457 0.0 
1.29419 0.972756 0.0 
1.17153 1.01686 0.0 
1.30622 0.997722 0.0 
1.32567 0.988492 0.0 
1.25267 0.985879 0.0 
1.30605 1.01006 0.0 
1.24003 1.00145 0.0 
1.26535 0.990102 0.0 
1.26351 0.985028 0.0 
1.1708 1.01446 0.0 
1.26913 0.991213 0.0 
1.25789 0.989963 0.0 
1.30245 1.00415 0.0 
1.16026 1.01372 0.0 
1.16151 1.01651 0.0 
1.34976 0.988434 0.0 
1.2657 0.986025 0.0 
1.27202 0.99281 0.0 
1.2163 1.00088 0.0 
1.15404 1.00402 0.0 
1.26994 0.988364 0.0 
1.32365 0.977771 0.0 
1.1564 1.01302 0.0 
1.15576 1.01375 0.0 
1.33311 0.983228 0.0 
1.28591 1.00216 0.0 
1.21974 0.999774 0.0 
1.36078 0.98109 0.0 
1.33446 1.00009 0.0 
1.28917 0.972682 0.0 
1.17805 0.998136 0.0 
1.25255 0.98687 0.0 
1.2609 0.979231 0.0 
1.29343 1.00564 0.0 
1.33403 0.981168 0.0 
1.24288 1.01036 0.0 
1.3334 0.997105 0.0 
1.26922 1.00003 0.0 
1.2661 0.988664 0.0 
1.25536 1.00726 0.0 
1.26427 0.991393 0.0 
1.2143 1.00407 0.0 
1.30459 0.988886 0.0 
1.25522 1.01308 0.0 
1.34431 0.971117 0.0 
1.16609 1.01392 0.0 
1.17294 1.02058 0.0 
1.16026 1.01589 0.0 
1.15751 1.0123 0.0 
1.26159 0.986 0.0 
1.329 0.982658 0.0 
1.1671 1.01455 0.0 
1.27808 1.00275 0.0 
1.28582 0.993364 0.0 
[...]
<PointData>
  <DataArray type = "Float64" Name="Vitesse" NumberOfComponents="3" format="ascii">
0.286484 0.0809579 0.0 
0.41633 -0.144063 0.0 
-0.0102077 -0.223177 0.0 
0.0150104 -0.116354 0.0 
0.358875 -0.131778 0.0 
0.318125 -0.0988802 0.0 
0.488563 0.119185 0.0 
0.395329 -0.138758 0.0 
0.487082 -0.165233 0.0 
0.40731 0.129002 0.0 
0.454284 0.0354346 0.0 
0.164226 0.0588565 0.0 
0.36779 0.113892 0.0 
0.418247 -0.140107 0.0 
0.512666 -0.0117858 0.0 
0.386865 -0.132237 0.0 
0.378613 -0.0547071 0.0 
0.47714 -0.149571 0.0 
0.370229 -0.137262 0.0 
0.29531 -0.0699382 0.0 
-0.0366967 -0.256704 0.0 
0.0699299 -0.152987 0.0 
0.355776 0.0873937 0.0 
0.254812 0.0970471 0.0 
0.140682 0.023572 0.0 
0.321667 0.13517 0.0 
0.372649 0.133191 0.0 
0.35447 -0.126404 0.0 
0.436477 -0.134774 0.0 
0.275172 -0.0877147 0.0 
0.574985 -0.15945 0.0 
0.604043 -0.161078 0.0 
-0.0121283 -0.176504 0.0 
0.479201 0.0365056 0.0 
-0.0414756 -0.243043 0.0 
0.000481919 -0.181181 0.0 
0.551352 -0.0162627 0.0 
-0.0137822 -0.233897 0.0 
0.579851 -0.180507 0.0 
0.274407 0.0898712 0.0 
0.467979 0.0449651 0.0 
0.629237 0.0987659 0.0 
0.391238 0.0845454 0.0 
0.411246 0.0388927 0.0 
0.296495 0.133998 0.0 
0.314602 0.0864617 0.0 
0.362712 0.0971315 0.0 
0.339928 0.0681263 0.0 
0.510969 -0.187075 0.0 
-0.0460716 -0.25679 0.0 
0.487703 0.0272922 0.0 
0.38974 0.0731695 0.0 
0.019549 -0.165842 0.0 
0.457807 -0.143416 0.0 
0.612951 -0.181136 0.0 
-0.0471012 -0.264895 0.0 
0.227814 -0.0162998 0.0 
0.576446 -0.183496 0.0 
0.240244 0.0620099 0.0 
0.405014 0.105888 0.0 
-0.00130071 -0.153815 0.0 
-0.0126768 -0.197197 0.0 
0.292329 0.0538722 0.0 
0.483405 0.0626388 0.0 
0.591335 0.115376 0.0 
0.61053 0.108419 0.0 
0.626751 -0.16892 0.0 
0.488607 -0.144412 0.0 
0.613233 -0.176643 0.0 
0.0541418 -0.0969498 0.0 
-0.021476 -0.198013 0.0 
0.383406 0.077911 0.0 
0.192116 0.0777394 0.0 
0.0953566 -0.00579646 0.0 
0.506599 0.037482 0.0 
0.467358 0.076108 0.0 
-0.036711 -0.239508 0.0 
-0.0297465 -0.251431 0.0 
-0.0540435 -0.267651 0.0 
0.387083 0.0777532 0.0 
0.461571 0.122488 0.0 
0.217386 -0.0037175 0.0 
0.0737559 -0.0943412 0.0 
0.458968 0.0430293 0.0 
0.148938 0.00635425 0.0 
0.458331 -0.138175 0.0 
0.403486 0.085696 0.0 
0.493507 0.0982265 0.0 
0.507861 -0.151302 0.0 
0.386441 0.0335078 0.0 
0.577867 -0.0142698 0.0 
0.00187371 -0.219385 0.0 
0.31359 0.0698633 0.0 
0.315138 -0.117384 0.0 
0.509361 -0.156009 0.0 
0.172976 0.0222164 0.0 
0.527977 0.0334309 0.0 
0.291577 0.10501 0.0 
0.10563 -0.00300788 0.0 
0.474569 0.117437 0.0 
0.369257 0.0396135 0.0 
0.296599 -0.0861496 0.0 
0.0033482 -0.211122 0.0 
-0.0359648 -0.266427 0.0 
0.145561 -0.0082439 0.0 
0.317056 -0.0630509 0.0 
0.481313 0.0467469 0.0 
0.461688 -0.17889 0.0 
0.301625 0.134706 0.0 
0.251106 -0.0616377 0.0 
0.797353 -0.156453 0.0 
0.462388 0.0410187 0.0 
0.551127 0.0650863 0.0 
0.294879 -0.0586529 0.0 
0.0267442 -0.0975908 0.0 
0.36015 0.0685198 0.0 
0.306155 0.0747295 0.0 
0.413561 0.130425 0.0 
0.0532018 -0.169479 0.0 
0.441771 0.0406446 0.0 
0.414254 -0.177208 0.0 
0.321181 -0.0809005 0.0 
0.346528 0.0927552 0.0 
0.022867 -0.187471 0.0 
0.575839 -0.172186 0.0 
-0.0263509 -0.241647 0.0 
0.272894 -0.0557592 0.0 
0.537064 -0.122836 0.0 
0.322792 0.0655482 0.0 
0.587465 0.112457 0.0 
0.451111 -0.196838 0.0 
0.627916 0.113892 0.0 
0.498775 0.0661857 0.0 
0.26278 0.11259 0.0 
0.488634 -0.193347 0.0 
-0.0364109 -0.239045 0.0 
0.354714 0.0983456 0.0 
0.586816 -0.157623 0.0 
0.4356 0.062299 0.0 
0.430088 -0.128556 0.0 
0.426036 0.0983136 0.0 
0.456662 0.0645946 0.0 
0.56601 0.108464 0.0 
-0.0273925 -0.246566 0.0 
0.282102 0.129943 0.0 
0.427343 0.128961 0.0 
0.479455 -0.188862 0.0 
0.559304 0.117745 0.0 
0.144317 -0.0394547 0.0 
0.359621 0.0439492 0.0 
0.342194 -0.145685 0.0 
0.516405 0.0954259 0.0 
0.449831 0.113962 0.0 
0.505824 0.0714387 0.0 
0.166767 -0.0102981 0.0 
0.483151 -0.183195 0.0 
-0.0276002 -0.248182 0.0 
0.512629 -0.193065 0.0 
0.397595 0.0350564 0.0 
0.0369218 -0.184337 0.0 
0.488036 0.0373637 0.0 
0.486855 -0.183029 0.0 
0.362913 0.0347465 0.0 
0.527046 0.119519 0.0 
0.0183309 -0.202823 0.0 
0.372736 -0.206214 0.0 
0.343715 0.136021 0.0 
-0.0403036 -0.2618 0.0 
0.547853 -0.163703 0.0 
0.662841 0.100499 0.0 
0.507618 -0.18694 0.0 
0.37301 0.0732613 0.0 
0.385496 0.0855274 0.0 
0.56355 -0.188446 0.0 
0.348015 0.106895 0.0 
-0.00457958 -0.22171 0.0 
0.394311 0.132463 0.0 
0.350068 0.0852703 0.0 
0.414948 0.0736155 0.0 
0.2323 0.105217 0.0 
0.466982 0.0991257 0.0 
-0.0389347 -0.259814 0.0 
-0.00786129 -0.196108 0.0 
0.244126 0.107523 0.0 
0.514366 -0.161131 0.0 
0.0825582 -0.04983 0.0 
0.112632 0.0115126 0.0 
0.513463 -0.172628 0.0 
0.521012 0.0210141 0.0 
-0.0427391 -0.249219 0.0 
0.430328 0.105983 0.0 
0.376215 0.123158 0.0 
0.10888 0.00457042 0.0 
0.551729 -0.184991 0.0 
0.259177 0.0786236 0.0 
0.44556 -0.148542 0.0 
0.548224 -0.158866 0.0 
0.121746 -0.0152957 0.0 
0.583449 -0.142558 0.0 
0.614168 0.0270865 0.0 
0.445331 0.0460859 0.0 
-0.0387518 -0.19405 0.0 
0.184129 0.0481279 0.0 
-0.0495524 -0.266467 0.0 
0.497638 -0.193235 0.0 
0.171174 0.0512872 0.0 
0.298129 0.0959846 0.0 
0.329731 -0.130236 0.0 
0.475106 0.115096 0.0 
0.353156 0.0848738 0.0 
0.453555 0.0551758 0.0 
0.545632 -0.187605 0.0 
0.480087 -0.161102 0.0 
0.355884 -0.127411 0.0 
0.0421721 -0.151141 0.0 
0.545895 0.106303 0.0 
0.51614 0.0250132 0.0 
0.540226 -0.18054 0.0 
0.387316 0.0813811 0.0 
0.490161 -0.172263 0.0 
0.0827953 -0.0199476 0.0 
0.0761587 -0.0650686 0.0 
0.333741 -0.136714 0.0 
0.199178 0.0241621 0.0 
-0.0594015 -0.273528 0.0 
0.560524 -0.181859 0.0 
0.436701 0.00170569 0.0 
0.49879 -0.194003 0.0 
0.518852 0.0472252 0.0 
0.021958 -0.127347 0.0 
0.502262 0.120432 0.0 
0.418656 -0.16362 0.0 
0.254619 -0.0789786 0.0 
0.455216 0.108973 0.0 
0.498672 0.107469 0.0 
-0.038482 -0.256434 0.0 
0.227174 0.0276456 0.0 
0.349265 0.0959551 0.0 
-0.0196899 -0.187479 0.0 
0.606098 -0.163897 0.0 
0.401312 0.058334 0.0 
0.534765 -0.00182379 0.0 
0.419541 0.00832423 0.0 
0.534208 0.0365436 0.0 
0.320685 0.132065 0.0 
-0.0219854 -0.192629 0.0 
0.419417 0.104873 0.0 
0.4203 0.130989 0.0 
0.534629 -0.183227 0.0 
0.567365 -0.18733 0.0 
0.234844 0.0701589 0.0 
0.0183271 -0.148479 0.0 
0.537628 -0.174522 0.0 
-0.00220885 -0.163898 0.0 
0.414131 0.00288338 0.0 
0.614105 0.0883544 0.0 
0.47019 0.0928864 0.0 
0.528881 -0.167972 0.0 
0.365139 0.10504 0.0 
0.57675 0.117557 0.0 
0.00406222 -0.148562 0.0 
0.50273 -0.110637 0.0 
0.33452 -0.127129 0.0 
0.533732 -0.0151256 0.0 
0.568548 -0.171699 0.0 
0.448548 0.00999749 0.0 
0.365404 0.0842698 0.0 
0.523333 -0.188462 0.0 
0.153546 0.0193411 0.0 
0.549034 -0.178183 0.0 
0.332458 0.137789 0.0 
0.319926 0.0979388 0.0 
0.00248079 -0.156532 0.0 
0.339537 -0.110137 0.0 
0.29619 0.117064 0.0 
0.380948 0.120476 0.0 
-0.007726 -0.165659 0.0 
0.515949 0.0137904 0.0 
0.603854 0.116059 0.0 
0.591358 -0.174893 0.0 
0.64463 0.107222 0.0 
0.126808 0.00869444 0.0 
0.54029 -0.190994 0.0 
0.357394 0.0767609 0.0 
0.312079 0.0518511 0.0 
-0.00804835 -0.185593 0.0 
0.200713 0.0767393 0.0 
-0.035573 -0.227116 0.0 
0.040849 -0.112003 0.0 
0.3626 -0.157493 0.0 
0.39525 0.0643777 0.0 
0.475413 0.123935 0.0 
0.482788 -0.193345 0.0 
-0.0165482 -0.227712 0.0 
-0.029325 -0.226885 0.0 
0.394244 0.125407 0.0 
0.473936 -0.156814 0.0 
0.592014 -0.184328 0.0 
0.4725 -0.151757 0.0 
0.373827 0.0328502 0.0 
0.285214 0.0534234 0.0 
0.37908 0.096946 0.0 
0.524511 0.121239 0.0 
0.353244 0.0860242 0.0 
0.587409 -0.187705 0.0 
0.382347 0.130021 0.0 
0.484641 0.0715185 0.0 
0.50424 0.117221 0.0 
0.597547 -0.186565 0.0 
-0.0125853 -0.177093 0.0 
0.552981 -0.189957 0.0 
0.343865 -0.0719735 0.0 
0.405064 -0.136536 0.0 
0.466307 -0.16632 0.0 
0.496256 0.0981788 0.0 
-0.0228351 -0.233826 0.0 
0.565643 -0.164603 0.0 
0.209126 0.0646135 0.0 
0.370857 0.0224705 0.0 
-0.0466433 -0.265511 0.0 
0.152134 0.0414996 0.0 
0.378059 -0.128215 0.0 
0.0904807 -0.0343766 0.0 
0.431674 -0.142642 0.0 
0.373467 0.0660796 0.0 
0.35424 0.0601852 0.0 
0.232833 0.106231 0.0 
0.39229 0.121021 0.0 
0.393887 -0.15351 0.0 
0.45556 -0.13913 0.0 
0.437034 0.121066 0.0 
0.370079 0.107267 0.0 
0.359746 0.131207 0.0 
0.417115 -0.147768 0.0 
0.341412 0.128741 0.0 
-0.0268323 -0.213123 0.0 
0.548024 0.119671 0.0 
-0.0636005 -0.236231 0.0 
0.340756 0.0702164 0.0 
0.402819 0.0682115 0.0 
0.344055 0.123305 0.0 
0.518535 -0.19184 0.0 
0.354666 0.0887269 0.0 
0.107786 -0.0722812 0.0 
0.58761 0.0819104 0.0 
0.387725 -0.100082 0.0 
0.40596 0.0480419 0.0 
0.0304574 -0.135848 0.0 
0.500399 0.0431791 0.0 
-0.0597136 -0.271897 0.0 
0.329734 0.0888517 0.0 
0.385825 -0.121753 0.0 
0.304439 0.0581122 0.0 
0.288206 0.100006 0.0 
0.506293 -0.156956 0.0 
0.515708 0.112701 0.0 
0.364616 -0.109351 0.0 
0.114239 0.0121612 0.0 
0.0317784 -0.148114 0.0 
0.349625 0.10035 0.0 
0.371982 0.0518877 0.0 
0.408364 0.0760554 0.0 
0.46372 0.0468037 0.0 
0.283774 0.0763236 0.0 
0.334026 0.114075 0.0 
0.554094 -0.152157 0.0 
0.244912 0.0169904 0.0 
0.412457 -0.100818 0.0 
0.488077 -0.138589 0.0 
0.330777 0.137576 0.0 
0.344626 0.0773129 0.0 
0.508984 -0.1802 0.0 
0.228897 -0.0674269 0.0 
0.321331 0.13066 0.0 
0.36464 0.0603253 0.0 
0.347474 0.0411653 0.0 
0.417787 0.0641011 0.0 
0.34263 0.073105 0.0 
0.554214 -0.169594 0.0 
0.470178 0.106812 0.0 
0.10489 -0.00964836 0.0 
0.532441 -0.188829 0.0 
0.702693 -0.178138 0.0 
0.428031 -0.113858 0.0 
0.357975 0.107276 0.0 
0.244958 0.0557492 0.0 
0.00228093 -0.168709 0.0 
0.456494 -0.12157 0.0 
0.339342 0.0979621 0.0 
0.475715 0.125726 0.0 
0.354065 0.0411852 0.0 
0.638556 -0.157648 0.0 
0.521832 0.0511537 0.0 
0.39499 0.00987611 0.0 
0.56956 -0.0175144 0.0 
0.116104 -0.00539139 0.0 
0.593496 0.0877173 0.0 
0.396214 0.0718121 0.0 
0.352073 0.0731036 0.0 
-0.0169575 -0.205427 0.0 
-0.0325026 -0.221201 0.0 
0.0173393 -0.197388 0.0 
0.547855 -0.13755 0.0 
0.360547 0.0670019 0.0 
-0.0468068 -0.271915 0.0 
0.502442 0.0516983 0.0 
0.639455 0.088666 0.0 
0.537295 -0.173523 0.0 
0.331408 0.11774 0.0 
0.338094 0.0952509 0.0 
0.397449 0.0909927 0.0 
0.4184 0.0670685 0.0 
0.0985323 -0.0226376 0.0 
0.333945 0.116901 0.0 
0.428418 0.116895 0.0 
0.440028 -0.172202 0.0 
0.320559 0.123125 0.0 
0.325901 0.099152 0.0 
0.348006 0.100943 0.0 
0.402311 -0.116044 0.0 
0.513635 -0.130308 0.0 
0.364791 0.0385332 0.0 
0.408678 0.120283 0.0 
0.301937 0.126153 0.0 
-0.00654587 -0.183843 0.0 
0.0867916 -0.0526237 0.0 
0.366075 0.125944 0.0 
0.411519 0.0851252 0.0 
0.366989 -0.0879139 0.0 
0.39088 -0.0856759 0.0 
0.343198 0.0803368 0.0 
0.276684 0.117457 0.0 
0.0200217 -0.154915 0.0 
0.354107 0.0215417 0.0 
0.431317 0.0509135 0.0 
0.659975 0.0926369 0.0 
-0.0585932 -0.241574 0.0 
0.376042 0.0886991 0.0 
0.562598 0.11388 0.0 
0.316022 0.102428 0.0 
0.352569 0.0770576 0.0 
0.0745047 -0.0472044 0.0 
0.39912 0.0622357 0.0 
0.227379 0.104863 0.0 
0.359209 0.119691 0.0 
0.134221 0.0294538 0.0 
0.312109 0.113062 0.0 
-0.0271509 -0.206584 0.0 
0.338105 0.128654 0.0 
0.154375 -0.00153805 0.0 
0.481562 0.0419848 0.0 
0.418791 -0.150705 0.0 
0.691051 -0.17497 0.0 
0.485553 -0.121467 0.0 
0.345324 -0.0939733 0.0 
0.407009 0.112811 0.0 
0.34857 0.0875468 0.0 
0.444074 -0.1561 0.0 
0.247075 0.109846 0.0 
0.308737 0.137012 0.0 
0.534562 0.115708 0.0 
0.428924 0.0758881 0.0 
0.0857358 -0.0600563 0.0 
0.198302 0.0468731 0.0 
0.466141 -0.153651 0.0 
0.49321 0.111393 0.0 
0.123191 -0.00211249 0.0 
0.339894 0.0953485 0.0 
0.368313 0.0780953 0.0 
-0.0541121 -0.269109 0.0 
0.391738 0.0497669 0.0 
0.557581 0.117635 0.0 
0.529118 -0.164051 0.0 
0.518759 -0.169889 0.0 
0.406422 0.128793 0.0 
0.524101 -0.191345 0.0 
0.384283 0.0603192 0.0 
0.49828 0.123665 0.0 
0.361824 0.0975406 0.0 
0.315473 0.132197 0.0 
0.470363 -0.196163 0.0 
0.489335 0.0762393 0.0 
0.505488 -0.177808 0.0 
0.50095 0.0315381 0.0 
0.0545067 -0.067381 0.0 
0.522564 -0.144126 0.0 
0.2823 -0.114262 0.0 
0.213817 0.0966708 0.0 
0.572225 -0.126476 0.0 
0.447822 0.0943602 0.0 
0.327591 0.0897819 0.0 
0.526757 0.119202 0.0 
0.431163 0.0340095 0.0 
0.479981 0.0346865 0.0 
0.421377 0.125472 0.0 
0.0465112 -0.0772265 0.0 
0.141737 -0.0218715 0.0 
0.0102435 -0.124125 0.0 
0.615032 -0.179661 0.0 
0.276142 0.0467149 0.0 
0.348435 0.13735 0.0 
-0.0510053 -0.246549 0.0 
0.422272 0.0914481 0.0 
0.379648 0.0972235 0.0 
0.109474 -0.0317831 0.0 
-0.0565712 -0.271895 0.0 
0.648096 -0.164866 0.0 
0.578408 0.109358 0.0 
0.290256 0.13289 0.0 
0.016446 -0.123543 0.0 
0.509721 0.0757122 0.0 
0.0130825 -0.148307 0.0 
0.317963 0.137803 0.0 
0.419715 0.0690425 0.0 
0.343467 0.0724954 0.0 
0.00148869 -0.140867 0.0 
0.212365 0.0933569 0.0 
0.52137 0.0779334 0.0 
0.148122 0.0440778 0.0 
0.404847 0.100486 0.0 
0.332632 0.117085 0.0 
0.256264 0.0376195 0.0 
0.0801391 -0.113804 0.0 
0.352347 0.101838 0.0 
0.36963 0.135446 0.0 
0.556533 0.00459525 0.0 
0.306213 0.13238 0.0 
0.373416 -0.145046 0.0 
0.404206 0.0164598 0.0 
0.467956 0.00806559 0.0 
0.0222709 -0.140213 0.0 
0.0982676 -0.0553718 0.0 
0.388338 0.070152 0.0 
0.771654 -0.161883 0.0 
0.0757304 -0.0506193 0.0 
0.403181 0.112502 0.0 
0.110458 -0.00686735 0.0 
0.0566844 -0.153844 0.0 
0.425816 0.0236574 0.0 
-0.0446392 -0.259727 0.0 
0.601872 0.10365 0.0 
0.00993268 -0.157827 0.0 
0.278911 0.12986 0.0 
0.178839 0.0118791 0.0 
0.304582 0.0633271 0.0 
0.358845 0.0902207 0.0 
0.250118 0.116881 0.0 
0.108799 -0.0196008 0.0 
-0.0479512 -0.264517 0.0 
0.194467 0.0827202 0.0 
0.486103 0.0273938 0.0 
0.329502 0.0935407 0.0 
0.394446 0.0479716 0.0 
0.18776 0.0576462 0.0 
-0.0536675 -0.271888 0.0 
0.288129 0.0855315 0.0 
0.764245 -0.167674 0.0 
0.640951 -0.183836 0.0 
0.437728 0.0254577 0.0 
0.097129 -0.0213738 0.0 
0.529555 0.0651947 0.0 
0.500345 0.122706 0.0 
0.449485 0.100552 0.0 
0.449496 0.098958 0.0 
0.289182 -0.104264 0.0 
0.357 0.0585509 0.0 
0.413835 0.0201451 0.0 
0.432644 -0.0805098 0.0 
0.299084 0.0884124 0.0 
0.35514 0.0282869 0.0 
0.0147804 -0.240671 0.0 
0.515869 0.0441537 0.0 
0.379594 0.0892633 0.0 
-0.0538667 -0.269095 0.0 
0.183058 0.0699865 0.0 
-0.035396 -0.250402 0.0 
0.360036 0.124248 0.0 
0.0233533 -0.179968 0.0 
0.0825387 -0.0325567 0.0 
0.409562 0.117381 0.0 
0.5396 0.0460406 0.0 
-0.048817 -0.262893 0.0 
0.693676 -0.178984 0.0 
0.373392 -0.141841 0.0 
0.175636 0.034299 0.0 
0.448677 0.11028 0.0 
0.331918 0.118629 0.0 
-0.0320559 -0.241353 0.0 
0.344497 0.111406 0.0 
0.0418887 -0.171106 0.0 
0.343964 0.0639707 0.0 
0.0770461 -0.137811 0.0 
0.425187 0.0127582 0.0 
0.354931 0.0372027 0.0 
0.661557 -0.181982 0.0 
0.67309 -0.152873 0.0 
-0.0245516 -0.201442 0.0 
0.128224 0.0268409 0.0 
0.106342 -0.224915 0.0 
0.751656 -0.177214 0.0 
0.75166 -0.172698 0.0 
0.0650766 -0.112911 0.0 
0.158612 -0.160243 0.0 
-0.00602518 -0.161624 0.0 
0.432419 0.125554 0.0 
-0.0562333 -0.2544 0.0 
0.147755 -0.156775 0.0 
0.329316 0.103486 0.0 
0.333096 0.133458 0.0 
0.339659 0.102349 0.0 
0.211175 0.0457716 0.0 
0.806948 -0.164592 0.0 
0.551709 -0.00352835 0.0 
0.165978 0.00250086 0.0 
0.0872263 -0.0187395 0.0 
0.466784 0.0235554 0.0 
0.336605 0.103801 0.0 
0.0376886 -0.0835086 0.0 
0.234527 0.0876629 0.0 
0.162525 0.0425837 0.0 
0.385638 0.106338 0.0 
0.55146 0.114527 0.0 
-0.0170033 -0.188898 0.0 
0.461826 0.115536 0.0 
0.0400828 -0.11708 0.0 
0.378401 0.0438314 0.0 
0.339682 0.0802711 0.0 
0.364826 0.0955985 0.0 
0.448879 0.12527 0.0 
0.402827 0.0792528 0.0 
0.255548 0.115803 0.0 
-0.0514904 -0.266378 0.0 
0.0673315 -0.0485764 0.0 
0.35066 0.0750904 0.0 
0.389874 0.127051 0.0 
0.343045 0.106074 0.0 
0.0198658 -0.13433 0.0 
0.300703 0.0637476 0.0 
-0.0303214 -0.228194 0.0 
0.362995 0.0570018 0.0 
0.373684 0.0816642 0.0 
0.232086 0.0517109 0.0 
0.672525 -0.181441 0.0 
0.52677 0.0243986 0.0 
0.501975 0.0267393 0.0 
0.279621 0.0593935 0.0 
0.243597 0.0919366 0.0 
0.3534 0.135652 0.0 
0.766892 -0.176904 0.0 
0.616869 -0.176489 0.0 
0.453835 0.0332557 0.0 
0.463077 0.121155 0.0 
0.404478 0.131602 0.0 
0.206394 0.0702274 0.0 
0.190528 0.0649748 0.0 
0.651049 -0.176302 0.0 
0.519484 0.110174 0.0 
0.614761 -0.183485 0.0 
0.439061 0.11962 0.0 
0.203445 0.0729671 0.0 
0.347805 0.076937 0.0 
0.702302 -0.180555 0.0 
0.424107 0.111439 0.0 
0.448832 0.085733 0.0 
0.395213 0.0419705 0.0 
0.759388 -0.175214 0.0 
0.662893 -0.164262 0.0 
0.365559 0.0888423 0.0 
0.612823 -0.132591 0.0 
0.758207 -0.154048 0.0 
0.426565 0.0674436 0.0 
0.50333 0.0562747 0.0 
0.392862 0.0935246 0.0 
0.505026 0.0862791 0.0 
0.649628 -0.179301 0.0 
-0.0296205 -0.222658 0.0 
0.0498557 -0.0778126 0.0 
0.431464 0.128529 0.0 
0.0213928 -0.156814 0.0 
0.0681957 -0.0379233 0.0 
0.546745 0.11056 0.0 
0.05181 -0.113795 0.0 
-0.010661 -0.16854 0.0 
0.534423 0.0717748 0.0 
0.082637 -0.0384129 0.0 
0.0543367 -0.0585853 0.0 
0.50714 0.0605277 0.0 
0.38223 0.0161548 0.0 
0.354977 0.0210053 0.0 
0.450035 0.0268726 0.0 
0.340122 0.0823841 0.0 
0.0941151 -0.0115633 0.0 
0.633214 -0.180337 0.0 
-0.0594839 -0.249116 0.0 
0.524827 0.0610928 0.0 
0.449613 0.114551 0.0 
0.294132 0.129399 0.0 
0.790234 -0.170799 0.0 
0.300318 0.109477 0.0 
0.654821 -0.172931 0.0 
-0.0191945 -0.189103 0.0 
0.380197 0.0891006 0.0 
0.178319 0.0588634 0.0 
0.541524 0.0784482 0.0 
0.685199 -0.172191 0.0 
0.0300173 -0.0981061 0.0 
0.722229 -0.176055 0.0 
0.600171 -0.166007 0.0 
0.423973 0.0445573 0.0 
0.417718 0.0305735 0.0 
0.308529 0.136781 0.0 
0.229673 0.0419448 0.0 
-0.0397817 -0.239353 0.0 
0.400303 0.077502 0.0 
0.274556 -0.199192 0.0 
0.458954 0.0889273 0.0 
0.741589 -0.178545 0.0 
0.176949 0.00234682 0.0 
0.483152 0.0957953 0.0 
0.524581 0.0398983 0.0 
0.395636 0.0196161 0.0 
0.291725 0.119608 0.0 
0.675016 -0.140151 0.0 
0.245502 0.115528 0.0 
0.366589 0.112712 0.0 
0.643712 -0.171804 0.0 
0.338833 0.108519 0.0 
0.400844 0.0610948 0.0 
0.095432 -0.115557 0.0 
0.0272124 -0.10981 0.0 
0.00951512 -0.130729 0.0 
0.320429 0.137579 0.0 
0.258288 0.0700703 0.0 
0.381921 0.132635 0.0 
0.324701 0.126755 0.0 
0.0570542 -0.0586888 0.0 
0.0610512 -0.0547585 0.0 
0.0835616 -0.0632319 0.0 
0.380168 0.0506926 0.0 
0.108701 -0.0213154 0.0 
-0.0134706 -0.207712 0.0 
0.0128091 -0.166246 0.0 
0.324748 0.108285 0.0 
0.373969 0.128298 0.0 
0.186375 0.0678205 0.0 
0.536769 0.00906097 0.0 
0.431996 0.0904957 0.0 
0.316551 -0.135131 0.0 
0.442537 0.0487174 0.0 
0.418664 0.0446207 0.0 
0.4025 0.0983758 0.0 
0.672337 -0.178136 0.0 
0.265752 0.108262 0.0 
0.341209 0.0681995 0.0 
0.620879 0.111869 0.0 
0.599976 -0.185892 0.0 
0.159323 0.0318224 0.0 
0.449001 0.126036 0.0 
0.158797 0.0545673 0.0 
0.664532 -0.182858 0.0 
0.631129 -0.184622 0.0 
0.323715 0.135444 0.0 
0.58659 0.113237 0.0 
0.482949 0.086407 0.0 
-0.00348601 -0.203392 0.0 
0.104932 -0.0372021 0.0 
0.377989 0.0591798 0.0 
0.496527 0.0917334 0.0 
0.0822218 -0.124562 0.0 
0.367783 0.0930628 0.0 
0.613501 -0.149827 0.0 
0.64397 -0.143236 0.0 
0.0623893 -0.0583247 0.0 
-0.0469568 -0.2523 0.0 
-0.0250844 -0.237902 0.0 
0.13579 -0.0755786 0.0 
0.711089 -0.179771 0.0 
0.694651 -0.167979 0.0 
0.332295 0.124801 0.0 
0.471043 0.0307419 0.0 
0.155646 0.0355454 0.0 
0.272807 -0.218492 0.0 
0.120189 -0.0206228 0.0 
0.382763 0.104266 0.0 
0.433675 0.0521228 0.0 
0.367099 -0.0658845 0.0 
0.380635 0.0858117 0.0 
0.218691 -0.183755 0.0 
0.0259551 -0.140236 0.0 
-0.0206077 -0.197375 0.0 
-0.0245438 -0.206943 0.0 
0.476548 0.0451238 0.0 
0.395008 0.0588614 0.0 
0.0415953 -0.0829207 0.0 
0.196622 0.0790819 0.0 
0.337205 0.0738857 0.0 
-0.0613984 -0.261787 0.0 
0.290178 0.11523 0.0 
0.484856 0.120502 0.0 
0.35221 0.104596 0.0 
0.218597 0.079838 0.0 
0.625399 -0.185301 0.0 
0.397742 -0.169256 0.0 
0.539318 0.0501555 0.0 
0.271105 -0.191878 0.0 
0.534804 0.0177995 0.0 
0.248849 -0.209033 0.0 
0.341336 0.108048 0.0 
0.477023 0.124919 0.0 
0.0449138 -0.0688472 0.0 
-0.0138426 -0.172611 0.0 
-0.0144957 -0.176757 0.0 
0.194272 0.00108182 0.0 
0.337683 0.0975263 0.0 
0.109018 -0.0552553 0.0 
0.501657 0.0149523 0.0 
0.341117 0.104006 0.0 
0.0548263 -0.0552596 0.0 
0.21138 -0.153814 0.0 
0.0502646 -0.092779 0.0 
0.413843 0.0654503 0.0 
0.135931 0.0260193 0.0 
0.0378683 -0.10102 0.0 
0.2722 0.126777 0.0 
0.531035 0.103926 0.0 
0.35535 0.0445265 0.0 
0.338237 0.0834721 0.0 
0.449053 0.127766 0.0 