<VTKFile type="UnstructuredGrid" version="0.1" byte_order="LittleEndian">
  <UnstructuredGrid>
    <Piece NumberOfPoints="16225" NumberOfCells="31982">
      <Points>
        <DataArray type = "Float64" NumberOfComponents="3" format="ascii">
1.04974 1.01845 0.0 
1.08265 1.01864 0.0 
1.07091 1.01758 0.0 
1.07785 1.02174 0.0 
1.05991 1.01476 0.0 
1.08767 1.02024 0.0 
1.07574 1.02532 0.0 
1.03121 1.01686 0.0 
1.07562 1.01798 0.0 
1.07042 1.01671 0.0 
1.07704 1.02094 0.0 
1.07228 1.01621 0.0 
1.08149 1.02269 0.0 
1.08063 1.02809 0.0 
1.08318 1.01939 0.0 
1.06078 1.01402 0.0 
1.08515 1.02034 0.0 
1.08142 1.02188 0.0 
1.05412 1.01507 0.0 
1.03955 1.02715 0.0 
1.01529 1.01701 0.0 
1.06932 1.01716 0.0 
1.07115 1.0161 0.0 
1.07172 1.02566 0.0 
1.05661 1.02541 0.0 
1.07867 1.02293 0.0 
1.08331 1.02079 0.0 
1.0332 1.01997 0.0 
1.06965 1.01545 0.0 
1.10429 1.03513 0.0 
1.07563 1.02356 0.0 
1.11211 1.04558 0.0 
1.07716 1.02244 0.0 
1.08148 1.02357 0.0 
1.07186 1.0154 0.0 
1.07388 1.01414 0.0 
1.07499 1.02231 0.0 
1.03657 1.02296 0.0 
1.05268 1.01929 0.0 
1.07296 1.02514 0.0 
1.05847 1.02576 0.0 
1.04814 1.01795 0.0 
1.06847 1.02432 0.0 
1.06088 1.01658 0.0 
1.04769 1.01679 0.0 
1.07933 1.01973 0.0 
1.08398 1.01625 0.0 
1.06451 1.01499 0.0 
1.06262 1.02105 0.0 
1.01986 1.0121 0.0 
1.07765 1.01921 0.0 
1.0617 1.02238 0.0 
1.11004 1.0293 0.0 
1.07965 1.02047 0.0 
1.06206 1.02177 0.0 
1.07031 1.02515 0.0 
1.06208 1.02531 0.0 
1.06346 1.0134 0.0 
1.03376 1.02051 0.0 
1.07385 1.01949 0.0 
1.05151 1.01921 0.0 
1.08127 1.01968 0.0 
1.07296 1.01325 0.0 
1.10674 1.02694 0.0 
1.07185 1.01185 0.0 
1.04882 1.01843 0.0 
1.07928 1.02362 0.0 
1.03456 1.01555 0.0 
1.06399 1.02238 0.0 
1.07424 1.02412 0.0 
1.06351 1.01407 0.0 
1.04913 1.01901 0.0 
1.05771 1.02046 0.0 
1.03302 1.01726 0.0 
1.03251 1.01788 0.0 
1.14003 1.03387 0.0 
1.05623 1.02302 0.0 
1.08658 1.02313 0.0 
1.08267 1.02424 0.0 
1.05968 1.01989 0.0 
1.05156 1.01782 0.0 
1.05715 1.01727 0.0 
1.07944 1.01813 0.0 
1.03617 1.02378 0.0 
1.03112 1.01627 0.0 
1.07337 1.02227 0.0 
1.07261 1.01194 0.0 
1.06148 1.01828 0.0 
1.06283 1.0195 0.0 
1.06204 1.01794 0.0 
1.07305 1.01252 0.0 
1.03762 1.02431 0.0 
1.07747 1.02006 0.0 
1.04714 1.01547 0.0 
1.07191 1.0131 0.0 
1.03392 1.01932 0.0 
1.04024 1.01592 0.0 
1.07189 1.01242 0.0 
1.06798 1.01281 0.0 
1.0633 1.01819 0.0 
1.06087 1.01583 0.0 
1.07258 1.02446 0.0 
1.03448 1.01819 0.0 
1.07249 1.01266 0.0 
1.08513 1.02268 0.0 
1.06354 1.02559 0.0 
1.04798 1.0187 0.0 
1.0312 1.01444 0.0 
1.04839 1.01545 0.0 
1.03447 1.02058 0.0 
1.05731 1.02497 0.0 
1.06409 1.01635 0.0 
1.03521 1.02062 0.0 
1.1194 1.03853 0.0 
1.07365 1.0153 0.0 
1.03343 1.01475 0.0 
1.03324 1.01647 0.0 
1.03243 1.01462 0.0 
1.03848 1.02572 0.0 
1.05593 1.02183 0.0 
1.03204 1.01722 0.0 
1.07393 1.01882 0.0 
1.07337 1.01188 0.0 
1.06783 1.01413 0.0 
1.08564 1.02936 0.0 
1.07036 1.02597 0.0 
1.07214 1.01459 0.0 
1.08852 1.02433 0.0 
1.04075 1.01793 0.0 
1.05712 1.01587 0.0 
1.05808 1.02277 0.0 
1.05552 1.0204 0.0 
1.0865 1.01857 0.0 
1.06839 1.01355 0.0 
1.09078 1.02316 0.0 
1.06014 1.02076 0.0 
1.10277 1.03061 0.0 
1.03933 1.02529 0.0 
1.07487 1.02473 0.0 
1.0676 1.01986 0.0 
1.05218 1.01989 0.0 
1.03118 1.01522 0.0 
1.08569 1.02377 0.0 
1.0536 1.02137 0.0 
1.04959 1.01983 0.0 
1.03135 1.0175 0.0 
1.03255 1.01653 0.0 
1.03229 1.01566 0.0 
1.05794 1.01767 0.0 
1.07108 1.01836 0.0 
1.08426 1.01803 0.0 
1.13393 1.03303 0.0 
1.06633 1.01511 0.0 
1.10958 1.03059 0.0 
1.01957 1.01127 0.0 
1.09075 1.02393 0.0 
1.03254 1.01863 0.0 
1.06699 1.01685 0.0 
1.07118 1.0122 0.0 
1.07082 1.011 0.0 
1.08073 1.02902 0.0 
1.03251 1.01945 0.0 
1.03319 1.01903 0.0 
1.07058 1.01109 0.0 
1.07094 1.01165 0.0 
1.07012 1.01127 0.0 
1.07147 1.01148 0.0 
1.06107 1.02189 0.0 
1.08138 1.02031 0.0 
1.13195 1.03252 0.0 
1.07114 1.01268 0.0 
1.03289 1.01522 0.0 
1.06504 1.01366 0.0 
1.03337 1.01564 0.0 
1.11561 1.03103 0.0 
1.10086 1.03122 0.0 
1.0532 1.01993 0.0 
1.10991 1.03001 0.0 
1.03151 1.01576 0.0 
1.03675 1.01752 0.0 
1.06429 1.0232 0.0 
1.03288 1.01594 0.0 
1.03317 1.01816 0.0 
1.13899 1.04208 0.0 
1.05477 1.02763 0.0 
1.03398 1.01616 0.0 
1.06902 1.01511 0.0 
1.03182 1.0164 0.0 
1.03603 1.01709 0.0 
1.06233 1.02471 0.0 
1.11596 1.03032 0.0 
1.03377 1.01531 0.0 
1.09506 1.01864 0.0 
1.0702 1.01885 0.0 
1.07448 1.01734 0.0 
1.03439 1.01693 0.0 
1.05127 1.02395 0.0 
1.03417 1.01484 0.0 
1.12427 1.03184 0.0 
1.12637 1.03124 0.0 
1.05909 1.02182 0.0 
1.03478 1.01761 0.0 
1.03392 1.01481 0.0 
1.06188 1.01443 0.0 
1.11228 1.03367 0.0 
1.06272 1.01742 0.0 
1.10429 1.03015 0.0 
1.09352 1.02348 0.0 
1.09826 1.0318 0.0 
1.06745 1.01811 0.0 
1.05137 1.02165 0.0 
1.08254 1.0258 0.0 
1.06898 1.02205 0.0 
1.13229 1.03099 0.0 
1.06394 1.02109 0.0 
1.12093 1.03132 0.0 
1.08008 1.01743 0.0 
1.09328 1.03097 0.0 
1.0596 1.01759 0.0 
1.12764 1.03063 0.0 
1.04204 1.02864 0.0 
1.04962 1.0154 0.0 
1.03674 1.01884 0.0 
1.03696 1.01622 0.0 
1.09122 1.02139 0.0 
1.09334 1.022 0.0 
1.07046 1.01299 0.0 
1.08821 1.02365 0.0 
1.07584 1.0167 0.0 
1.08185 1.01799 0.0 
1.07447 1.01452 0.0 
1.08283 1.03123 0.0 
1.09796 1.03304 0.0 
1.08211 1.03045 0.0 
1.03822 1.01616 0.0 
1.05574 1.0247 0.0 
1.09324 1.02024 0.0 
1.03927 1.02217 0.0 
1.08323 1.02539 0.0 
1.03732 1.01562 0.0 
1.09862 1.02034 0.0 
1.08532 1.02486 0.0 
1.09347 1.02108 0.0 
1.08652 1.01939 0.0 
1.08655 1.02433 0.0 
1.03856 1.0229 0.0 
1.09652 1.02078 0.0 
1.03765 1.01517 0.0 
1.03936 1.01919 0.0 
1.08861 1.02291 0.0 
1.1277 1.0322 0.0 
1.0636 1.01581 0.0 
1.08136 1.02531 0.0 
1.09552 1.01992 0.0 
1.03842 1.02366 0.0 
1.08692 1.02505 0.0 
1.09041 1.02227 0.0 
1.10187 1.03257 0.0 
1.06541 1.01992 0.0 
1.09216 1.01874 0.0 
1.0389 1.01526 0.0 
1.07547 1.02892 0.0 
1.08912 1.01845 0.0 
1.09679 1.03052 0.0 
1.03618 1.01944 0.0 
1.06965 1.01145 0.0 
1.03516 1.01698 0.0 
1.06421 1.01981 0.0 
1.03479 1.01628 0.0 
1.06065 1.02517 0.0 
1.09471 1.01925 0.0 
1.01592 1.01657 0.0 
1.08334 1.02304 0.0 
1.04069 1.02343 0.0 
1.03658 1.02069 0.0 
1.05519 1.01957 0.0 
1.07846 1.02577 0.0 
1.05916 1.01687 0.0 
1.09079 1.01803 0.0 
1.0625 1.01866 0.0 
1.11357 1.02976 0.0 
1.12044 1.03341 0.0 
1.10885 1.0314 0.0 
1.08517 1.0255 0.0 
1.06414 1.01766 0.0 
1.07772 1.03062 0.0 
1.05983 1.02551 0.0 
1.05386 1.01939 0.0 
1.03823 1.02145 0.0 
1.0376 1.02295 0.0 
1.05803 1.01836 0.0 
1.0922 1.03173 0.0 
1.10534 1.02887 0.0 
1.12771 1.03353 0.0 
1.11848 1.02967 0.0 
1.09045 1.02774 0.0 
1.05138 1.01531 0.0 
1.05229 1.02116 0.0 
1.08659 1.02795 0.0 
1.07297 1.02104 0.0 
1.06626 1.01953 0.0 
1.10045 1.02631 0.0 
1.10521 1.03199 0.0 
1.09535 1.02809 0.0 
1.0556 1.01627 0.0 
1.05883 1.01805 0.0 
1.06662 1.01579 0.0 
1.0703 1.01217 0.0 
1.06888 1.01431 0.0 
1.06753 1.01341 0.0 
1.09075 1.03004 0.0 
1.10496 1.03339 0.0 
1.08735 1.03172 0.0 
1.10135 1.02572 0.0 
1.03654 1.01568 0.0 
1.0394 1.01529 0.0 
1.1102 1.02788 0.0 
1.04915 1.01593 0.0 
1.10521 1.028 0.0 
1.0536 1.01802 0.0 
1.05678 1.02078 0.0 
1.0369 1.01511 0.0 
1.05428 1.01733 0.0 
1.06777 1.01212 0.0 
1.0527 1.02422 0.0 
1.04838 1.01663 0.0 
1.13526 1.03365 0.0 
1.06503 1.02701 0.0 
1.05215 1.01577 0.0 
1.10279 1.0296 0.0 
1.03553 1.01961 0.0 
1.09834 1.02736 0.0 
1.09181 1.02726 0.0 
1.09244 1.02896 0.0 
1.08742 1.03108 0.0 
1.05982 1.02377 0.0 
1.12284 1.03023 0.0 
1.05862 1.0252 0.0 
1.08473 1.02831 0.0 
1.05313 1.01517 0.0 
1.06281 1.01553 0.0 
1.06273 1.0149 0.0 
1.05088 1.01849 0.0 
1.06506 1.02444 0.0 
1.10883 1.03279 0.0 
1.0366 1.02006 0.0 
1.07413 1.01582 0.0 
1.05233 1.02301 0.0 
1.0933 1.02426 0.0 
1.05924 1.02123 0.0 
1.05934 1.02305 0.0 
1.12523 1.02971 0.0 
1.05797 1.02203 0.0 
1.06019 1.02447 0.0 
1.11002 1.02855 0.0 
1.05804 1.01682 0.0 
1.06497 1.01923 0.0 
1.05342 1.02255 0.0 
1.04829 1.01728 0.0 
1.09954 1.02688 0.0 
1.08295 1.02868 0.0 
1.06576 1.01573 0.0 
1.04989 1.01539 0.0 
1.05091 1.01708 0.0 
1.03467 1.0149 0.0 
1.09682 1.02659 0.0 
1.11961 1.03236 0.0 
1.06337 1.01692 0.0 
1.03723 1.01824 0.0 
1.06319 1.02429 0.0 
1.06532 1.0151 0.0 
1.09524 1.02862 0.0 
1.06394 1.01327 0.0 
1.09615 1.03234 0.0 
1.06706 1.01235 0.0 
1.09143 1.02831 0.0 
1.08853 1.02848 0.0 
1.13481 1.03203 0.0 
1.07049 1.01362 0.0 
1.10057 1.02849 0.0 
1.05627 1.01759 0.0 
1.03715 1.01513 0.0 
1.05305 1.02058 0.0 
1.06413 1.02386 0.0 
1.06224 1.01369 0.0 
1.05684 1.02238 0.0 
1.06821 1.02125 0.0 
1.05316 1.0162 0.0 
1.03889 1.01874 0.0 
1.05324 1.0187 0.0 
1.0969 1.02594 0.0 
1.07516 1.02652 0.0 
1.09513 1.02754 0.0 
1.12915 1.03006 0.0 
1.0384 1.01522 0.0 
1.05223 1.01619 0.0 
1.05188 1.01527 0.0 
1.08746 1.02887 0.0 
1.07279 1.02624 0.0 
1.05038 1.01537 0.0 
1.10287 1.02737 0.0 
1.06423 1.02604 0.0 
1.06365 1.01522 0.0 
1.03935 1.01789 0.0 
1.06238 1.026 0.0 
1.07874 1.0263 0.0 
1.05134 1.02233 0.0 
1.08641 1.01767 0.0 
1.09505 1.02699 0.0 
1.1161 1.03291 0.0 
1.05543 1.02235 0.0 
1.08463 1.02587 0.0 
1.04916 1.01643 0.0 
1.16055 1.10243 0.0 
1.08769 1.02584 0.0 
1.05797 1.02453 0.0 
1.05478 1.02167 0.0 
1.07087 1.02652 0.0 
1.05905 1.01564 0.0 
1.09018 1.02467 0.0 
1.05883 1.02414 0.0 
1.06712 1.0175 0.0 
1.06202 1.01658 0.0 
1.08907 1.02536 0.0 
1.05344 1.02795 0.0 
1.03886 1.01597 0.0 
1.0357 1.015 0.0 
1.06807 1.01488 0.0 
1.04843 1.0161 0.0 
1.08066 1.02569 0.0 
1.07596 1.02167 0.0 
1.05863 1.01738 0.0 
1.03799 1.02 0.0 
1.08146 1.02633 0.0 
1.09705 1.0239 0.0 
1.05263 1.01521 0.0 
1.067 1.01393 0.0 
1.07515 1.02598 0.0 
1.05437 1.01504 0.0 
1.03807 1.02069 0.0 
1.06575 1.01468 0.0 
1.06698 1.02422 0.0 
1.03549 1.01635 0.0 
1.05545 1.01561 0.0 
1.08389 1.02624 0.0 
1.03947 1.01975 0.0 
1.08089 1.0268 0.0 
1.05258 1.01817 0.0 
1.08015 1.01903 0.0 
1.05285 1.02185 0.0 
1.05088 1.01534 0.0 
1.05586 1.01486 0.0 
1.05931 1.01431 0.0 
1.06848 1.01187 0.0 
1.04156 1.01809 0.0 
1.08613 1.02622 0.0 
1.06854 1.02603 0.0 
1.06275 1.02223 0.0 
1.10234 1.02505 0.0 
1.05893 1.015 0.0 
1.09914 1.02532 0.0 
1.05568 1.01814 0.0 
1.0522 1.02367 0.0 
1.02146 1.05401 0.0 
1.07412 1.01656 0.0 
1.11697 1.03169 0.0 
1.03516 1.01495 0.0 
1.05536 1.01493 0.0 
[...]
<PointData>
  <DataArray type = "Float64" Name="Vitesse" NumberOfComponents="3" format="ascii">
0.421541 0.0120867 0.0 
0.352012 -0.00281963 0.0 
0.250487 -0.00788802 0.0 
0.636432 -0.000217403 0.0 
0.0240451 -0.00370945 0.0 
0.486168 -0.00323755 0.0 
0.949929 0.0180558 0.0 
0.612667 0.119812 0.0 
0.289597 -0.00518882 0.0 
0.180445 -0.00689775 0.0 
0.561797 -0.00246383 0.0 
0.149605 -0.00407223 0.0 
0.712362 0.00212965 0.0 
1.0723 0.0256691 0.0 
0.414762 -0.00321862 0.0 
0 0 0.0 
0.495589 -0.00334383 0.0 
0.639007 -0.000379492 0.0 
0 0 0.0 
1.22276 0.184359 0.0 
1.05682 0.393326 0.0 
0.213734 -0.00872044 0.0 
0.139621 -0.00487373 0.0 
0.994984 0.0249626 0.0 
1.09777 0.0668415 0.0 
0.74414 0.00389911 0.0 
0.536468 -0.00272433 0.0 
1.02629 0.197692 0.0 
0.0964845 -0.00477132 0.0 
1.15581 0.0162037 0.0 
0.813765 0.00851038 0.0 
1.16252 0.010693 0.0 
0.705 0.0024666 0.0 
0.788073 0.00527622 0.0 
0.098975 -0.0022661 0.0 
0.0470005 0.00351032 0.0 
0.701885 0.00271407 0.0 
1.17203 0.198935 0.0 
0.510863 0.0115889 0.0 
0.953724 0.0200748 0.0 
1.09983 0.0614705 0.0 
0.362776 0.0117485 0.0 
0.922566 0.0211542 0.0 
0.154908 -0.010994 0.0 
0.186863 0.00270373 0.0 
0.444405 -0.00380259 0.0 
0.186148 0.00266065 0.0 
0.0563479 -0.00652103 0.0 
0.6443 0.00395993 0.0 
0.22938 0.086051 0.0 
0.398042 -0.00451021 0.0 
0.801194 0.0175636 0.0 
1.03905 0.00475991 0.0 
0.512645 -0.00305488 0.0 
0.731212 0.011127 0.0 
0.971018 0.0239616 0.0 
1.04486 0.0442272 0.0 
0 0 0.0 
1.0627 0.200829 0.0 
0.42677 -0.00611601 0.0 
0.51279 0.0146592 0.0 
0.439227 -0.00348012 0.0 
0.0165726 0.00459105 0.0 
0.939767 0.00242533 0.0 
-0.00447197 0.00361714 0.0 
0.428148 0.0149311 0.0 
0.801531 0.00658205 0.0 
0.161474 0.0193632 0.0 
0.780074 0.0129308 0.0 
0.868141 0.0126512 0.0 
0.0152783 -0.00320892 0.0 
0.513936 0.0213891 0.0 
0.61658 0.00890766 0.0 
0.614368 0.106771 0.0 
0.755035 0.141341 0.0 
1.13345 -0.0247037 0.0 
0.925872 0.0434798 0.0 
0.734004 0.0014977 0.0 
0.837593 0.00720718 0.0 
0.526581 -0.000152795 0.0 
0.311156 0.000991948 0.0 
0.220841 -0.00964857 0.0 
0.306347 -0.00293444 0.0 
1.19829 0.208069 0.0 
0.482867 0.0917353 0.0 
0.705782 0.00304373 0.0 
-0.00506402 0.0050163 0.0 
0.32529 -0.0102509 0.0 
0.460291 -0.00645064 0.0 
0.286962 -0.0111326 0.0 
0.00189703 0.00556339 0.0 
1.20312 0.196369 0.0 
0.475909 -0.0040633 0.0 
0 0 0.0 
0.0114762 0.00330302 0.0 
0.929127 0.168652 0.0 
0.110994 0.00676924 0.0 
-6.91336e-06 0.00388312 0.0 
0.00259895 0.000145198 0.0 
0.310988 -0.0109922 0.0 
0.0941807 -0.00919794 0.0 
0.90512 0.0162914 0.0 
0.733664 0.121418 0.0 
0.00380643 0.00468167 0.0 
0.699965 0.000620993 0.0 
1.04914 0.0421982 0.0 
0.482248 0.0217868 0.0 
0 0 0.0 
0 0 0.0 
1.05537 0.191991 0.0 
1.06699 0.0596576 0.0 
0.141247 -0.0105382 0.0 
1.04286 0.182301 0.0 
1.16333 0.00228222 0.0 
0.0994486 -0.000229221 0.0 
0 0 0.0 
0.431744 0.0690143 0.0 
0 0 0.0 
1.21828 0.192165 0.0 
0.8039 0.0303087 0.0 
0.650384 0.121814 0.0 
0.363196 -0.00657633 0.0 
-0.0059007 0.00621797 0.0 
0.0311508 -0.00235596 0.0 
1.09821 0.0244307 0.0 
1.02245 0.0292376 0.0 
0.0602472 0.000319827 0.0 
0.822267 0.0044813 0.0 
0.485454 0.0453439 0.0 
0.0836119 -0.00758432 0.0 
0.880403 0.0332617 0.0 
0.631378 0.0145569 0.0 
0.350701 -0.0026372 0.0 
0.0159315 -0.00062705 0.0 
0.725562 0.000225546 0.0 
0.631051 0.00599808 0.0 
1.09191 0.0120875 0.0 
1.21271 0.184416 0.0 
0.912297 0.0155613 0.0 
0.479958 -0.00643014 0.0 
0.601891 0.0205315 0.0 
0.217327 0.0376 0.0 
0.789081 0.00381632 0.0 
0.779817 0.0343001 0.0 
0.629496 0.0311817 0.0 
0.732937 0.146349 0.0 
0.474816 0.0815451 0.0 
0.279801 0.044706 0.0 
0.264574 -0.00956103 0.0 
0.320557 -0.00820506 0.0 
0.306511 -0.00186538 0.0 
1.12131 -0.0157533 0.0 
0.0682398 -0.00630545 0.0 
1.08084 0.00688898 0.0 
0 0 0.0 
0.785121 0.00230147 0.0 
0.878005 0.169736 0.0 
0.185284 -0.00986012 0.0 
-0.00211923 0.00288568 0.0 
0 0 0.0 
1.10377 0.0288886 0.0 
0.986116 0.195482 0.0 
0.913208 0.171336 0.0 
0 0 0.0 
-0.00363407 0.00205256 0.0 
0 0 0.0 
-0.00470109 0.00255985 0.0 
0.754387 0.014575 0.0 
0.495693 -0.00313548 0.0 
1.11247 -0.0130887 0.0 
0.00311812 0.00276922 0.0 
0.139166 0.019272 0.0 
0.0101901 -0.00196606 0.0 
0.226861 0.0326963 0.0 
1.08552 0.0028625 0.0 
1.10949 0.0146119 0.0 
0.594547 0.0173033 0.0 
1.06332 0.00587784 0.0 
0.339221 0.059773 0.0 
0.522242 0.0679023 0.0 
0.859069 0.0194709 0.0 
0.319868 0.0504799 0.0 
0.778832 0.140958 0.0 
1.16306 -0.0227896 0.0 
1.18657 0.091043 0.0 
0.327978 0.0467097 0.0 
0.0756882 -0.00417429 0.0 
0.478793 0.0865093 0.0 
0.459911 0.0605594 0.0 
1.00251 0.0382637 0.0 
1.06537 0.00196027 0.0 
0.128224 0.0166837 0.0 
0.364457 -0.00431687 0.0 
0.368643 -0.00828169 0.0 
0.236594 -0.00512536 0.0 
0.486567 0.0729446 0.0 
1.06301 0.0814757 0.0 
0 0 0.0 
1.09962 -0.00431784 0.0 
1.08508 -0.00657603 0.0 
0.766675 0.0190937 0.0 
0.61204 0.0945932 0.0 
0 0 0.0 
0.0203634 -0.00370124 0.0 
1.13674 0.00790029 0.0 
0.233471 -0.0116737 0.0 
1.07637 0.0101221 0.0 
0.743596 9.84444e-06 0.0 
1.12541 0.0178044 0.0 
0.298094 -0.0102957 0.0 
0.845359 0.0496867 0.0 
0.948267 0.0140268 0.0 
0.708545 0.00443907 0.0 
1.07912 -0.0133082 0.0 
0.639458 0.00267713 0.0 
1.08938 -0.00151902 0.0 
0.254198 -0.00137891 0.0 
1.11872 0.0206914 0.0 
0.253612 -0.0107078 0.0 
1.06862 -0.00795668 0.0 
1.22283 0.166939 0.0 
0 0 0.0 
0.767048 0.112121 0.0 
0.241325 0.0253107 0.0 
0.579699 -0.00310378 0.0 
0.626619 -0.00283698 0.0 
0.00737719 0.00183947 0.0 
0.771498 0.0024453 0.0 
0.192482 -0.00265054 0.0 
0.299722 -0.00191281 0.0 
0.064097 0.00300821 0.0 
1.14668 0.0326481 0.0 
1.14385 0.0199123 0.0 
1.13487 0.0316096 0.0 
0.197803 0.0174622 0.0 
1.06488 0.0644003 0.0 
0.484721 -0.00429751 0.0 
1.09796 0.159514 0.0 
0.918125 0.0115924 0.0 
0.101645 0.00849761 0.0 
0.491396 -0.00550209 0.0 
0.872911 0.00801075 0.0 
0.551461 -0.00393403 0.0 
0.415343 -0.0032817 0.0 
0.829335 0.00533137 0.0 
1.15052 0.177147 0.0 
0.525973 -0.00492266 0.0 
0 0 0.0 
0.747142 0.0917141 0.0 
0.710067 0.000229479 0.0 
1.10641 -0.00793187 0.0 
0.101151 -0.00930182 0.0 
0.920887 0.0127367 0.0 
0.459352 -0.0049183 0.0 
1.18201 0.185085 0.0 
0.8799 0.00781772 0.0 
0.653518 -0.00159616 0.0 
1.13242 0.0157963 0.0 
0.495797 -0.00548961 0.0 
0.369526 -0.00355921 0.0 
0 0 0.0 
1.11999 0.0356102 0.0 
0.344572 -0.00279006 0.0 
1.10127 0.0166917 0.0 
0.878857 0.138602 0.0 
0 0 0.0 
0.466203 0.065813 0.0 
0.489231 -0.00562092 0.0 
0.324978 0.043663 0.0 
1.04838 0.0479862 0.0 
0.408158 -0.00460429 0.0 
1.04993 0.392167 0.0 
0.73604 0.00238468 0.0 
1.15317 0.160936 0.0 
1.02017 0.165354 0.0 
0.523756 0.00681278 0.0 
0.965314 0.0175893 0.0 
0.178813 -0.0107512 0.0 
0.317134 -0.00250337 0.0 
0.364071 -0.00957999 0.0 
1.05059 0.00306733 0.0 
1.12905 1.32525e-05 0.0 
1.10203 0.00855888 0.0 
0.917306 0.0106202 0.0 
0.25678 -0.0114685 0.0 
1.14992 0.0378848 0.0 
1.07569 0.0540093 0.0 
0.512211 0.00893138 0.0 
1.05776 0.159751 0.0 
1.16199 0.187518 0.0 
0.345813 -0.00736467 0.0 
1.135 0.0232991 0.0 
1.03138 0.00710555 0.0 
1.12867 -0.00768773 0.0 
1.04257 -0.000548365 0.0 
1.02232 0.0146165 0.0 
0 0 0.0 
0.770858 0.0375586 0.0 
1.04475 0.0188963 0.0 
0.584053 -0.00224349 0.0 
0.448212 -0.00745752 0.0 
0.919075 0.00396496 0.0 
1.11865 0.0122376 0.0 
1.02328 0.0118367 0.0 
0.114562 -0.00750777 0.0 
0.306003 -0.00917665 0.0 
0.108011 -0.00799444 0.0 
-0.00237377 0.00199372 0.0 
0.040053 -0.00211789 0.0 
0.0112496 -0.000959238 0.0 
1.10283 0.0210077 0.0 
1.13986 0.0140843 0.0 
1.14418 0.0284127 0.0 
0.881798 0.00206708 0.0 
0.134264 0.0134538 0.0 
0 0 0.0 
0.980023 0.00239143 0.0 
0.0635556 -0.00130082 0.0 
0.995087 0.00541858 0.0 
0.326586 -0.00189743 0.0 
0.666492 0.0150483 0.0 
0 0 0.0 
0.233875 -0.00615622 0.0 
0 0 0.0 
1.06557 0.0758485 0.0 
0.160195 0.000533871 0.0 
1.13033 -0.0176035 0.0 
1.10832 0.0479328 0.0 
0.0525739 -0.00279629 0.0 
1.0618 0.0101752 0.0 
0.920189 0.152306 0.0 
0.981059 0.00780299 0.0 
0.995364 0.0120475 0.0 
1.06549 0.0165402 0.0 
1.13356 0.0269529 0.0 
0.953502 0.0374469 0.0 
1.05839 -0.00373535 0.0 
1.06847 0.0562499 0.0 
1.06585 0.0220071 0.0 
0 0 0.0 
0.080244 -0.00829397 0.0 
0.0453286 -0.00600378 0.0 
0.414197 0.00871819 0.0 
0.959103 0.0287787 0.0 
1.12775 0.0101344 0.0 
0.948865 0.149529 0.0 
0.130384 -0.00144008 0.0 
0.973985 0.0631759 0.0 
0.803049 0.00203021 0.0 
0.696049 0.012642 0.0 
0.893197 0.0315721 0.0 
1.04091 -0.00595803 0.0 
0.802973 0.0250514 0.0 
1.00585 0.0431424 0.0 
1.00997 0.00358581 0.0 
0.17338 -0.0102525 0.0 
0.41997 -0.00825496 0.0 
0.915331 0.0510744 0.0 
0.257577 0.00482677 0.0 
0.953007 0.00586593 0.0 
1.08542 0.025158 0.0 
0.102209 -0.00839667 0.0 
0 0 0.0 
0.212378 -0.00202254 0.0 
0 0 0.0 
0.944704 0.00657037 0.0 
1.11217 0.000332875 0.0 
0.187358 -0.0114144 0.0 
0.64569 0.0867718 0.0 
0.96375 0.031951 0.0 
0.0644763 -0.00662186 0.0 
1.04517 0.0133874 0.0 
0 0 0.0 
1.13747 0.0205887 0.0 
0 0 0.0 
1.04377 0.0155496 0.0 
1.05962 0.0188116 0.0 
1.10343 -0.0168335 0.0 
0.0219279 0.000843803 0.0 
1.02649 0.00928309 0.0 
0.259892 -0.00829436 0.0 
0 0 0.0 
0.684967 0.0260817 0.0 
0.920205 0.0258417 0.0 
0 0 0.0 
0.85427 0.0333156 0.0 
0.628789 8.97551e-05 0.0 
0.102004 -0.00526452 0.0 
0.685196 0.0839854 0.0 
0.422948 0.00417545 0.0 
0.906892 0.00472434 0.0 
1.02551 0.0250983 0.0 
0.999114 0.0104147 0.0 
1.05181 -0.00943696 0.0 
0 0 0.0 
0.0992341 -0.00424124 0.0 
0 0 0.0 
1.07691 0.0210522 0.0 
1.02312 0.0267459 0.0 
0 0 0.0 
0.970613 0.00529206 0.0 
1.06871 0.0436561 0.0 
0.0654141 -0.00750286 0.0 
0.515012 0.0547281 0.0 
1.08093 0.0487997 0.0 
0.995561 0.0199342 0.0 
0.920505 0.0598257 0.0 
0.285077 -0.00124376 0.0 
0.971386 0.00882296 0.0 
1.12369 0.00390452 0.0 
0.867561 0.0387761 0.0 
0.943243 0.0125279 0.0 
0.129902 -0.00106118 0.0 
1.09499 -0.020373 0.0 
0.929368 0.0103016 0.0 
1.03142 0.05248 0.0 
0.799581 0.0328957 0.0 
1.04968 0.0316815 0.0 
0.0739807 -0.00772937 0.0 
0.842262 0.0048124 0.0 
0.99415 0.0451231 0.0 
0.240923 -0.0104886 0.0 
0.155422 -0.0112021 0.0 
0.893403 0.0077107 0.0 
1.19785 0.0990968 0.0 
0.144279 0.0107023 0.0 
0 0 0.0 
0.0619371 -0.00422409 0.0 
0.085431 -0.00110256 0.0 
0.94985 0.0151559 0.0 
0.636261 -0.000226419 0.0 
0.232317 -0.0103909 0.0 
0.904494 0.129956 0.0 
0.984854 0.0173729 0.0 
0.767203 -0.000559072 0.0 
0 0 0.0 
0.022657 -0.00242603 0.0 
0.994958 0.0221377 0.0 
0 0 0.0 
0.986986 0.146041 0.0 
0.0463158 -0.00525732 0.0 
0.925842 0.0227835 0.0 
0.315609 0.0399666 0.0 
0.0534122 -0.00482196 0.0 
0.968922 0.0146941 0.0 
0.831403 0.106147 0.0 
1.01282 0.0200077 0.0 
0.353092 0.00142264 0.0 
0.382177 -0.0035171 0.0 
0.847242 0.0446429 0.0 
0 0 0.0 
0 0 0.0 
0 0 0.0 
0 0 0.0 
0.496113 0.043921 0.0 
0.958125 0.012903 0.0 
1.03818 0.0331809 0.0 
0.77613 0.0141386 0.0 
0.836104 0.000150423 0.0 
0.0312506 -0.00437113 0.0 
0.861828 0.00206747 0.0 
0.329641 -0.00502223 0.0 
1.03133 0.072389 0.0 
1.09046 0.156733 0.0 
0.178797 -0.0035695 0.0 
1.10024 0.0023058 0.0 
0 0 0.0 
0 0 0.0 
0.895329 0.00160425 0.0 
0.920325 0.039753 0.0 
0.826371 0.0226969 0.0 
1.13242 0.178936 0.0 
0.178489 -0.00108749 0.0 
0.862594 0.00318026 0.0 
1.08621 -0.0279704 0.0 
1.05462 0.012408 0.0 
1.06328 0.0290548 0.0 
0.356249 -0.00918147 0.0 
0.1475 -0.00950078 0.0 
0.946283 0.00834169 0.0 
0.146891 -0.00652842 0.0 
0.0860582 -0.00639102 0.0 
0.626886 0.0709983 0.0 
1.01832 0.0225523 0.0 
0 0 0.0 
1.12051 0.0306465 0.0 
0.157379 -0.00748241 0.0 
0.400516 0.0397818 0.0 
1.114 0.00642488 0.0 
1.10274 0.0561845 0.0 
1.03913 0.0499375 0.0 
0.147556 -0.000158291 0.0 
1.0664 0.0319219 0.0 
0.0213252 -0.00350827 0.0 
1.08451 0.0335281 0.0 
0.429335 -0.00301286 0.0 
0 0 0.0 
0.834744 0.104213 0.0 
0.815872 0.000370254 0.0 
0.278486 0.0254004 0.0 
0.412177 -0.00758924 0.0 
1.00931 0.0176714 0.0 
0.620403 4.86774e-05 0.0 
0.726051 0.0134188 0.0 
0.227794 0.0183709 0.0 
0.337872 -0.00914831 0.0 
0.552192 0.0629396 0.0 
0.266732 -0.00251363 0.0 
0.0692713 -0.0034405 0.0 
0.835084 0.0262501 0.0 
0.76213 0.0236215 0.0 
0.24583 0.0170145 0.0 
0.879192 0.0176172 0.0 
0 0 0.0 
1.14806 0.0260991 0.0 
0.822139 0.00181359 0.0 
0.0966201 0.00646023 0.0 
0.846189 0.0162702 0.0 
0.95262 0.12804 0.0 
0.0201087 -0.000531844 0.0 
0.954906 0.0110915 0.0 
0.0422061 -0.0050783 0.0 
0.536936 -0.00411945 0.0 
0.586848 -0.00113222 0.0 
0.0573301 -0.00693853 0.0 
1.00362 0.0147948 0.0 
0.0176095 -0.00231433 0.0 
0.174394 -0.00864501 0.0 
1.0857 0.052268 0.0 
0.903027 0.0537543 0.0 
0 0 0.0 
0.0136516 0.000609975 0.0 
1.04585 0.106347 0.0 
1.11906 -0.00530537 0.0 
0.909188 0.00712589 0.0 
0.198064 -0.0113157 0.0 
0 0 0.0 
0 0 0.0 
1.08547 0.0195916 0.0 
1.08614 0.152357 0.0 
0.041213 -0.00485675 0.0 
0.850182 0.0211561 0.0 
0.0632303 -0.00726495 0.0 
0.0344832 -0.00502652 0.0 
0.05032 -0.00630256 0.0 
1.20112 0.176824 0.0 
1.13663 0.0366168 0.0 
0.97794 0.0117445 0.0 
1.11055 0.0254039 0.0 
0 0 0.0 
0.0958403 -0.008334 0.0 
1.21284 0.175357 0.0 
0 0 0.0 
1.12032 0.0259257 0.0 
0 0 0.0 
0.705458 0.0155731 0.0 
1.10062 0.0338797 0.0 
1.08253 0.0155472 0.0 
1.0359 0.0377245 0.0 
0.459945 -0.00652724 0.0 
1.03068 0.0199745 0.0 
0.0250484 -0.00341356 0.0 
0 0 0.0 
0.420464 0.00644618 0.0 
1.2085 0.244064 0.0 
1.1624 0.171314 0.0 
0.0458327 -0.00558129 0.0 
1.19975 0.167471 0.0 
0 0 0.0 
0 0 0.0 
0.707266 0.0241945 0.0 
0.317057 -0.00388993 0.0 
0 0 0.0 
1.18072 0.167614 0.0 
0.145784 -0.0102125 0.0 
1.01909 0.0740151 0.0 
0.980465 0.0475574 0.0 
0.00569176 0.000355903 0.0 
1.22277 0.177254 0.0 
1.01994 0.0430709 0.0 
0.0495036 -0.00438021 0.0 
0.00500983 0.0065309 0.0 
0.205404 -0.0107862 0.0 
0.408379 -0.00364901 0.0 
1.21969 0.17221 0.0 
0.0385664 -0.00423393 0.0 
0 0 0.0 
1.10019 0.0511529 0.0 
0.930454 0.00319096 0.0 
0.0938278 -0.00875149 0.0 
1.11861 0.0159265 0.0 
0.804173 0.0113948 0.0 
0.691601 0.0308656 0.0 
0.017619 -0.00290682 0.0 
1.12884 0.158858 0.0 
0.10834 -0.00825166 0.0 
1.13208 0.0435638 0.0 
1.21125 0.165984 0.0 
0.899577 0.0217372 0.0 
0.372333 -0.00949675 0.0 
0.215957 -0.0116619 0.0 
0.611116 0.0251031 0.0 
1.02705 0.0014723 0.0 
0.992967 0.172996 0.0 
1.10169 0.215048 0.0 
0.430727 -0.00608627 0.0 
0.200682 -0.0113276 0.0 
1.16325 0.100875 0.0 
0.00292438 -0.000203569 0.0 
0.544579 -0.00135364 0.0 
0.110142 -0.00652313 0.0 
1.15851 0.220839 0.0 
1.18338 0.0952999 0.0 
0.988909 0.164672 0.0 
0 0 0.0 
0 0 0.0 
0 0 0.0 
0 0 0.0 
0.338246 -0.0103555 0.0 
0.430891 -0.000937095 0.0 
0.904821 0.0297311 0.0 
0.818286 0.144073 0.0 
0.517385 0.0183612 0.0 
1.09382 0.0296734 0.0 
0.0537007 -0.00445988 0.0 
0 0 0.0 
0.138448 -0.00399363 0.0 
0.120449 -0.00992163 0.0 
1.22017 0.129739 0.0 
0.168609 0.0261801 0.0 
0.395586 0.0420942 0.0 
0 0 0.0 
0.617097 0.00702653 0.0 
0.0488821 -0.00425762 0.0 
1.02497 0.0665961 0.0 
0.332688 0.00760381 0.0 
0.73781 0.265747 0.0 
1.2211 0.147719 0.0 
0.855917 0.00440346 0.0 
0.546166 0.00543343 0.0 
0.0752963 -0.00230019 0.0 
0.00482852 -0.000945252 0.0 
0.713685 0.0056488 0.0 
1.11553 0.190403 0.0 
1.13384 -0.0674301 0.0 
0.283138 -0.0109419 0.0 
0.012647 -0.00222823 0.0 
1.21294 0.153802 0.0 
0.412498 0.00064827 0.0 
0.000276043 0.000401498 0.0 
0.135161 -0.00275445 0.0 
1.19647 0.157456 0.0 
0.71125 0.00806326 0.0 
1.13298 -0.0877918 0.0 
0.0516901 -0.00360467 0.0 
1.1236 0.149876 0.0 
0.323222 -0.00714943 0.0 
0.179796 -0.00934199 0.0 
1.21702 0.118508 0.0 
1.05047 0.00732765 0.0 
1.09942 0.131482 0.0 
0.280112 -0.0109557 0.0 
0 0 0.0 
0.00334786 0.00133999 0.0 
1.08592 -0.0164439 0.0 
0.0527151 -0.0068372 0.0 
0.860359 0.0236466 0.0 
0 0 0.0 
0.917574 0.32149 0.0 
0.199241 -0.00939459 0.0 
0.783957 0.011729 0.0 
1.20916 0.158374 0.0 
0.0398071 -0.00545267 0.0 
1.05949 0.281714 0.0 
0.411868 -0.00556254 0.0 
0.0761603 -0.00278848 0.0 
0.243317 -0.00710246 0.0 
0.609535 0.015776 0.0 
0.912949 0.0278001 0.0 
0.311078 0.0327067 0.0 
0 0 0.0 
0.226903 -0.00495567 0.0 
0.133165 -0.0104456 0.0 
0.672853 0.00751569 0.0 
1.19225 0.117801 0.0 
0.032818 -0.00439398 0.0 
1.1317 -0.017033 0.0 
0.0730413 0.00150574 0.0 
0.0805849 -0.000257214 0.0 
0 0 0.0 
1.22064 0.156965 0.0 
1.20975 0.09417 0.0 
0.0339196 -0.000811908 0.0 
1.07591 -0.0213468 0.0 
0.765953 0.0407583 0.0 
0.00615506 -0.00106924 0.0 
0.218088 -0.00297455 0.0 
1.07898 0.0293963 0.0 
1.00957 0.0363288 0.0 
0.304887 0.00382061 0.0 
0.225865 0.00168471 0.0 
1.21756 0.11967 0.0 
0.119747 0.00198321 0.0 
1.06637 0.365199 0.0 
0.96827 0.0358719 0.0 
-0.00105434 0.000839983 0.0 
0.169094 -0.00489098 0.0 
0 0 0.0 
0.139216 -0.00840807 0.0 
1.15044 -0.0605219 0.0 
0.708057 0.0367548 0.0 
0 0 0.0 
1.15472 -0.0485808 0.0 
0.583562 0.0853879 0.0 
0.147343 0.0016598 0.0 
1.15824 -0.0264751 0.0 
0.943269 0.0397068 0.0 
0 0 0.0 
0.524349 0.00154054 0.0 
0.0487945 -0.00539146 0.0 
1.18312 0.0824659 0.0 
0.961456 0.00268903 0.0 
0.106293 -0.00642405 0.0 
0.111545 -0.00923626 0.0 
0.0927596 -0.00912603 0.0 
0.0956973 -0.00656753 0.0 
0.177649 0.00219387 0.0 
1.16558 0.106765 0.0 
1.09293 0.196187 0.0 
1.06005 -0.0436211 0.0 
0.999777 0.00816482 0.0 
1.13371 0.128512 0.0 
1.19786 0.0976114 0.0 
0.937808 0.0927814 0.0 
1.21815 0.173827 0.0 
0.200524 0.00192933 0.0 
0.9669 0.147871 0.0 
1.14322 -0.0497604 0.0 
0.416057 -0.00545385 0.0 
0.65726 0.109424 0.0 
0.854757 0.305351 0.0 
0.704659 0.0539218 0.0 
0.788087 0.0573329 0.0 
1.04391 0.0100049 0.0 
0.760774 0.104671 0.0 
1.01574 0.00654367 0.0 
1.16237 -0.00177228 0.0 
1.15385 0.0694625 0.0 
0.65479 0.000699699 0.0 
1.1599 0.155788 0.0 
0.461286 0.0284608 0.0 
0.129684 0.00394714 0.0 
0.339717 0.0175862 0.0 
1.18714 0.0570783 0.0 
1.16838 0.0806568 0.0 
0.935511 0.100597 0.0 
1.18518 0.134846 0.0 
0.181703 0.0216371 0.0 
0 0 0.0 
1.20527 0.138992 0.0 
1.08477 0.121119 0.0 
1.20095 0.151132 0.0 
0 0 0.0 
1.16565 0.00776916 0.0 
1.18405 0.0723996 0.0 
1.21598 0.146761 0.0 
0.228441 0.00884115 0.0 
1.19854 0.0719119 0.0 
0.970486 0.103438 0.0 
0.484495 0.0255327 0.0 
0.687346 0.055269 0.0 
1.11387 0.111032 0.0 
1.08574 -0.00940864 0.0 
0.488669 0.0289407 0.0 
0.26981 0.0129457 0.0 
1.09686 0.118021 0.0 
0.332302 0.0151139 0.0 
1.1099 0.00887917 0.0 
1.2225 0.156453 0.0 
1.02278 0.157876 0.0 
0.687663 -0.00144771 0.0 
1.03567 0.022637 0.0 
1.1917 0.0664257 0.0 
1.16268 -0.0152273 0.0 
1.16498 -0.000436883 0.0 
1.1432 0.101545 0.0 
1.22338 0.158312 0.0 
1.16939 0.137245 0.0 
1.02302 0.093903 0.0 
0.864652 0.079959 0.0 
1.22174 0.140087 0.0 
1.16491 0.00945773 0.0 
0.710058 0.0438975 0.0 
1.09759 0.072528 0.0 
1.16421 -0.00297333 0.0 
1.15085 -0.0519876 0.0 
1.15482 0.128907 0.0 
0.611761 0.0435136 0.0 
0.990283 0.0825411 0.0 
0.232549 0.0173022 0.0 
1.16061 0.00575769 0.0 
1.0419 0.11789 0.0 
1.13377 0.0931035 0.0 
1.19125 0.0605767 0.0 
0.400284 0.148081 0.0 
0.838933 0.117572 0.0 
0.763314 0.0688614 0.0 
1.16299 0.0917052 0.0 
0.81803 0.0695179 0.0 
1.18526 0.0527977 0.0 
1.18534 0.0681509 0.0 
1.20056 0.0791487 0.0 
1.15455 -0.0297607 0.0 
1.21879 0.123239 0.0 
1.20982 0.106468 0.0 
0.279766 0.0322157 0.0 
0.864784 0.0846764 0.0 
1.06724 -0.0254473 0.0 
1.11784 0.099945 0.0 
0.842368 0.137177 0.0 
1.14601 0.0826023 0.0 
1.14988 0.200001 0.0 
1.08581 0.121715 0.0 
1.15824 -0.0438614 0.0 
1.18667 0.120384 0.0 
1.21428 0.127515 0.0 
1.16572 0.0173121 0.0 
1.1976 0.130547 0.0 
1.02238 0.0171842 0.0 
1.18561 0.177515 0.0 
1.16268 -0.0258509 0.0 
1.15829 -0.010347 0.0 
0.131838 -0.00585403 0.0 
0.95595 0.084631 0.0 
1.04982 0.108852 0.0 
1.16644 0.0225823 0.0 
1.15522 -0.0421256 0.0 
1.08429 0.178089 0.0 
0.946575 0.0719947 0.0 
1.09989 0.00228844 0.0 
1.189 0.0997162 0.0 
0.667971 0.0458817 0.0 
1.00181 0.182481 0.0 
0.906897 0.0834584 0.0 
1.16156 -0.0136952 0.0 
1.16936 0.0266954 0.0 
1.01301 0.127842 0.0 
1.18304 0.159895 0.0 
1.05329 -0.0300813 0.0 
0.975427 0.0569451 0.0 
1.17921 0.125518 0.0 
0.81161 0.108023 0.0 
1.14481 0.0896088 0.0 
1.1669 0.0174877 0.0 
1.21228 0.100918 0.0 
1.15839 -0.0319094 0.0 
1.09637 0.173258 0.0 
1.18548 0.195485 0.0 
1.04156 0.0255404 0.0 
1.01806 0.0984822 0.0 
0.118956 0.00678141 0.0 
1.17032 0.027115 0.0 
0.585709 0.0379502 0.0 
0.722068 0.113229 0.0 
1.19298 0.0812289 0.0 