<VTKFile type="UnstructuredGrid" version="0.1" byte_order="LittleEndian">
  <UnstructuredGrid>
    <Piece NumberOfPoints="16349" NumberOfCells="32218">
      <Points>
        <DataArray type = "Float64" NumberOfComponents="3" format="ascii">
1.32176 0.963568 0.0 
2.72792 0.97334 0.0 
1.2165 0.961182 0.0 
1.20467 0.975629 0.0 
1.20403 0.974912 0.0 
1.69883 0.99326 0.0 
1.51283 0.949688 0.0 
1.15784 0.96931 0.0 
1.34253 0.963537 0.0 
1.47738 0.94305 0.0 
1.45734 0.959105 0.0 
1.20967 0.966205 0.0 
1.33959 0.957189 0.0 
1.28733 0.958507 0.0 
1.45409 0.945598 0.0 
1.51733 0.96973 0.0 
1.74228 0.982845 0.0 
1.42269 0.948778 0.0 
2.68293 0.948028 0.0 
1.64014 1.00245 0.0 
1.16247 0.972708 0.0 
1.44554 0.969124 0.0 
3.12982 0.933426 0.0 
1.19016 0.978558 0.0 
3.5 0.979591 0.0 
1.5698 0.954584 0.0 
1.18871 0.959068 0.0 
2.77147 0.943837 0.0 
1.79112 0.996684 0.0 
2.12071 0.990248 0.0 
1.38653 0.9495 0.0 
1.90117 1.00011 0.0 
1.42047 0.958426 0.0 
1.39029 0.961992 0.0 
1.57067 0.981019 0.0 
3.24119 0.92519 0.0 
2.86819 0.95289 0.0 
1.17847 0.966228 0.0 
1.71538 0.978946 0.0 
1.53132 0.977771 0.0 
1.21465 0.967502 0.0 
1.1742 0.97477 0.0 
3.17331 0.92843 0.0 
1.14762 0.968462 0.0 
1.36263 0.960618 0.0 
1.4381 0.948087 0.0 
1.16145 0.972257 0.0 
3.5 0.98397 0.0 
1.79162 1.00568 0.0 
1.54352 0.978032 0.0 
1.22219 0.972701 0.0 
2.8754 0.992586 0.0 
1.19434 0.971609 0.0 
1.42656 0.946765 0.0 
1.50908 0.9551 0.0 
3.30322 0.931634 0.0 
2.77753 0.951397 0.0 
2.61713 0.992926 0.0 
1.94567 0.972622 0.0 
1.23075 0.964858 0.0 
1.4739 0.9546 0.0 
1.57577 0.95279 0.0 
1.18709 0.966153 0.0 
2.40196 0.961264 0.0 
1.16422 0.972821 0.0 
1.17655 0.974465 0.0 
1.18713 0.968034 0.0 
2.94033 0.939537 0.0 
1.34867 0.962962 0.0 
2.65625 0.98653 0.0 
1.2799 0.957792 0.0 
2.33103 0.958764 0.0 
3.24634 0.977401 0.0 
1.81298 0.965089 0.0 
1.2221 0.961609 0.0 
1.17759 0.965227 0.0 
3.39807 0.976428 0.0 
1.18682 0.968986 0.0 
3.5 0.989617 0.0 
1.45368 0.956965 0.0 
1.69255 0.995865 0.0 
1.17856 0.97124 0.0 
1.20067 0.969834 0.0 
2.6054 0.951663 0.0 
1.42289 0.960818 0.0 
1.25679 0.96772 0.0 
1.18308 0.977342 0.0 
3.5 0.986768 0.0 
1.62674 0.966682 0.0 
2.84769 0.940007 0.0 
1.20786 0.962952 0.0 
2.8435 0.958496 0.0 
1.1796 0.965542 0.0 
2.27274 0.966362 0.0 
3.5 0.975186 0.0 
1.5331 0.958395 0.0 
1.18215 0.96591 0.0 
1.22657 0.970742 0.0 
1.22468 0.968583 0.0 
1.49859 0.972947 0.0 
1.51097 0.968084 0.0 
1.2287 0.97121 0.0 
2.57866 0.997966 0.0 
1.76345 0.965408 0.0 
1.36841 0.948718 0.0 
1.69901 0.986676 0.0 
1.20611 0.972262 0.0 
2.51196 0.953765 0.0 
2.75422 0.959992 0.0 
2.68673 0.953423 0.0 
3.13563 0.992141 0.0 
1.23608 0.968221 0.0 
1.18233 0.971521 0.0 
2.65998 0.98991 0.0 
2.98744 0.993109 0.0 
3.22144 0.990339 0.0 
1.6235 0.969042 0.0 
1.2286 0.961341 0.0 
1.67711 0.966283 0.0 
1.21715 0.963831 0.0 
1.68352 0.969676 0.0 
1.46664 0.958266 0.0 
2.20922 0.992226 0.0 
1.72298 0.966665 0.0 
2.84241 0.947925 0.0 
2.6847 0.957916 0.0 
1.167 0.96999 0.0 
1.2456 0.968213 0.0 
1.77763 0.993244 0.0 
1.8598 0.991936 0.0 
1.45413 0.968974 0.0 
2.54248 0.994884 0.0 
1.75172 1.01003 0.0 
2.83678 0.988654 0.0 
1.1774 0.971847 0.0 
1.24299 0.968765 0.0 
1.67307 0.95267 0.0 
1.37264 0.957837 0.0 
2.43678 0.996118 0.0 
3.18853 0.937257 0.0 
1.45509 0.942546 0.0 
1.20192 0.979522 0.0 
1.64683 0.967322 0.0 
2.22863 0.958859 0.0 
1.55184 0.967938 0.0 
2.76697 0.993462 0.0 
1.38652 0.947795 0.0 
1.37186 0.962736 0.0 
1.92954 0.975721 0.0 
2.42055 0.969255 0.0 
1.41587 0.957117 0.0 
1.19651 0.97142 0.0 
1.65336 1.00177 0.0 
3.05357 0.991235 0.0 
1.20989 0.971533 0.0 
1.18206 0.970384 0.0 
2.31313 0.955179 0.0 
1.36372 0.964407 0.0 
2.98895 0.934643 0.0 
1.44003 0.956897 0.0 
1.77061 0.984107 0.0 
2.5863 0.987913 0.0 
1.97362 1.00375 0.0 
3.5 0.965955 0.0 
1.20305 0.976216 0.0 
1.81746 0.967757 0.0 
1.1976 0.957687 0.0 
1.19548 0.981475 0.0 
1.17881 0.972553 0.0 
2.74653 0.98703 0.0 
2.02731 0.989133 0.0 
3.35809 0.989898 0.0 
1.99688 0.967538 0.0 
1.15449 0.967915 0.0 
3.09565 0.982564 0.0 
1.7119 1.00563 0.0 
1.34529 0.964505 0.0 
1.48239 0.969378 0.0 
1.62258 0.974389 0.0 
1.38662 0.958989 0.0 
3.38688 0.937536 0.0 
1.416 0.96385 0.0 
1.14114 0.970928 0.0 
2.94203 0.983551 0.0 
2.52613 0.930045 0.0 
1.18378 0.971066 0.0 
1.48811 0.95078 0.0 
1.69451 0.990176 0.0 
2.13391 0.996704 0.0 
1.1985 0.970361 0.0 
2.89546 0.965829 0.0 
1.54027 0.968591 0.0 
2.69252 0.993227 0.0 
1.50856 0.973226 0.0 
1.97013 0.994972 0.0 
1.51448 0.942057 0.0 
2.38594 0.998322 0.0 
1.22877 0.971745 0.0 
1.40853 0.958138 0.0 
1.17653 0.971124 0.0 
1.16573 0.969545 0.0 
1.67332 1.00066 0.0 
2.3846 0.976221 0.0 
1.17924 0.970481 0.0 
1.21197 0.963235 0.0 
1.25838 0.95518 0.0 
1.65054 0.982649 0.0 
3.41429 0.981372 0.0 
1.5818 0.972721 0.0 
1.48827 0.944292 0.0 
1.24001 0.969533 0.0 
1.73638 0.97268 0.0 
2.19925 0.965766 0.0 
1.63254 0.981941 0.0 
2.69629 0.969735 0.0 
3.19679 0.981428 0.0 
1.82978 0.997708 0.0 
2.64647 0.943304 0.0 
1.21801 0.970545 0.0 
3.28081 0.938795 0.0 
1.66568 0.98092 0.0 
1.86114 0.96633 0.0 
2.25259 0.994084 0.0 
1.5185 0.973513 0.0 
1.18102 0.974236 0.0 
2.76263 0.990735 0.0 
1.92399 0.996542 0.0 
1.17945 0.974774 0.0 
2.51285 0.997815 0.0 
1.17553 0.969261 0.0 
1.18571 0.979102 0.0 
1.63647 0.999432 0.0 
1.77437 0.974246 0.0 
1.18474 0.966756 0.0 
1.21493 0.97194 0.0 
1.43546 0.953846 0.0 
1.22649 0.962083 0.0 
3.05678 0.985773 0.0 
3.36661 0.985523 0.0 
1.24765 0.968808 0.0 
1.54165 0.979356 0.0 
2.3402 0.979675 0.0 
1.87234 0.996026 0.0 
1.17966 0.976413 0.0 
1.20493 0.970081 0.0 
3.5 0.933412 0.0 
1.20538 0.971488 0.0 
1.18316 0.965244 0.0 
1.43539 0.967156 0.0 
1.1753 0.973714 0.0 
3.07098 0.939564 0.0 
2.11995 0.968224 0.0 
1.49177 0.956831 0.0 
1.17906 0.973354 0.0 
1.23964 0.968679 0.0 
1.96205 0.992861 0.0 
1.20205 0.958309 0.0 
1.76514 0.962167 0.0 
1.19331 0.974143 0.0 
1.18568 0.967375 0.0 
1.48615 0.975347 0.0 
1.22541 0.967828 0.0 
1.1808 0.971026 0.0 
2.35663 0.971441 0.0 
1.46416 0.969098 0.0 
1.68851 0.998897 0.0 
3.09722 0.988417 0.0 
1.2207 0.963773 0.0 
1.76973 0.999593 0.0 
1.19739 0.958453 0.0 
1.17843 0.975518 0.0 
1.21831 0.973735 0.0 
1.18011 0.977456 0.0 
3.13852 0.979316 0.0 
2.11221 0.988952 0.0 
1.20915 0.954785 0.0 
1.18367 0.969151 0.0 
1.18396 0.976577 0.0 
1.19714 0.976739 0.0 
2.41699 0.965593 0.0 
1.48849 0.972228 0.0 
1.43564 0.958866 0.0 
1.20047 0.976904 0.0 
2.50195 0.970437 0.0 
1.19169 0.963197 0.0 
2.61799 0.981941 0.0 
1.23343 0.970209 0.0 
2.39696 0.987331 0.0 
2.95551 0.988414 0.0 
1.20142 0.972221 0.0 
1.17548 0.972526 0.0 
1.18484 0.970267 0.0 
1.16665 0.957283 0.0 
1.1758 0.965772 0.0 
1.61653 0.961771 0.0 
2.0662 0.974853 0.0 
1.52973 0.969158 0.0 
1.26352 0.966269 0.0 
1.54646 0.960988 0.0 
2.2033 0.9699 0.0 
1.16733 0.966389 0.0 
2.71238 0.983045 0.0 
1.1693 0.96727 0.0 
2.11429 0.994672 0.0 
1.18708 0.978375 0.0 
3.21863 0.985931 0.0 
1.72623 0.996285 0.0 
2.33037 0.968615 0.0 
1.19294 0.983524 0.0 
1.14736 0.965472 0.0 
1.22225 0.963201 0.0 
1.83583 1.0017 0.0 
1.1875 0.980662 0.0 
1.40218 0.948236 0.0 
1.78081 0.967925 0.0 
1.49264 0.968859 0.0 
1.96597 0.988741 0.0 
1.44844 0.957963 0.0 
1.2638 0.957363 0.0 
2.28741 0.996046 0.0 
1.66051 0.995348 0.0 
1.55663 0.962222 0.0 
1.18647 0.970808 0.0 
1.18317 0.968049 0.0 
2.20334 0.989346 0.0 
1.71702 0.975756 0.0 
1.75274 0.997647 0.0 
3.11257 0.971602 0.0 
1.64555 0.975603 0.0 
1.54016 0.970699 0.0 
1.20569 0.966559 0.0 
1.6745 0.997207 0.0 
1.57831 0.9756 0.0 
1.17319 0.963889 0.0 
1.61005 0.967187 0.0 
2.84381 0.984502 0.0 
1.15981 0.970655 0.0 
1.18221 0.967363 0.0 
1.18572 0.980049 0.0 
1.63359 1.00075 0.0 
2.01345 0.99326 0.0 
1.17995 0.971736 0.0 
1.49851 0.971434 0.0 
1.93122 0.983596 0.0 
1.18833 0.963789 0.0 
1.17746 0.974994 0.0 
2.08758 0.986671 0.0 
1.18298 0.978816 0.0 
1.18425 0.966208 0.0 
1.36747 0.96108 0.0 
3.36974 0.971501 0.0 
1.5214 0.960582 0.0 
1.19907 0.957047 0.0 
2.08 1.00222 0.0 
1.51006 0.971723 0.0 
1.66776 0.969042 0.0 
1.18516 0.975882 0.0 
1.25013 0.96671 0.0 
1.18438 0.968595 0.0 
1.19084 0.965018 0.0 
1.95586 0.970027 0.0 
1.36665 0.959703 0.0 
1.16342 0.967773 0.0 
2.34977 0.993753 0.0 
1.1958 0.975562 0.0 
2.19172 0.943304 0.0 
2.82361 0.970586 0.0 
2.10478 0.970812 0.0 
1.2054 0.974154 0.0 
1.2893 0.9593 0.0 
1.39699 0.962779 0.0 
1.26544 0.961503 0.0 
1.19208 0.982574 0.0 
1.47685 0.972106 0.0 
1.19842 0.962523 0.0 
1.54792 0.963856 0.0 
1.25577 0.961218 0.0 
2.05142 0.944761 0.0 
1.6936 0.946939 0.0 
1.18545 0.969576 0.0 
2.35013 0.985319 0.0 
2.34837 0.996389 0.0 
1.21227 0.969315 0.0 
1.17279 0.966073 0.0 
1.18777 0.969904 0.0 
1.28248 0.965029 0.0 
1.92751 0.950167 0.0 
1.18115 0.976808 0.0 
1.61712 0.981223 0.0 
1.21 0.969607 0.0 
1.19515 0.964801 0.0 
2.00608 0.983752 0.0 
1.15141 0.967261 0.0 
1.64829 1.00597 0.0 
1.72037 0.984744 0.0 
1.82336 0.975993 0.0 
1.20653 0.970683 0.0 
1.35731 0.964152 0.0 
1.43869 0.965599 0.0 
1.87806 0.974657 0.0 
1.68458 0.971049 0.0 
1.19088 0.981379 0.0 
1.26825 0.955673 0.0 
1.17054 0.96658 0.0 
2.76915 0.955686 0.0 
1.85022 0.979267 0.0 
1.16806 0.971626 0.0 
1.23146 0.968896 0.0 
1.15674 0.96504 0.0 
1.13869 0.972233 0.0 
1.17465 0.966527 0.0 
1.18624 0.96557 0.0 
1.49564 0.97629 0.0 
1.80484 0.980251 0.0 
1.47207 0.970305 0.0 
1.50328 0.969672 0.0 
1.1528 0.970427 0.0 
1.78214 1.00324 0.0 
1.2198 0.969821 0.0 
1.43824 0.969346 0.0 
2.12144 0.960928 0.0 
1.16963 0.969953 0.0 
1.179 0.974031 0.0 
3.5 0.952947 0.0 
1.19611 0.970153 0.0 
1.59727 0.976558 0.0 
2.89634 0.973348 0.0 
1.31329 0.958673 0.0 
1.2401 0.966289 0.0 
1.21158 0.969981 0.0 
1.18802 0.979804 0.0 
1.2379 0.970273 0.0 
1.20682 0.973009 0.0 
1.20167 0.975308 0.0 
1.2331 0.963489 0.0 
1.52467 0.971323 0.0 
1.30876 0.959952 0.0 
1.53273 0.961382 0.0 
1.71164 0.969357 0.0 
1.2312 0.969782 0.0 
1.14227 0.972622 0.0 
1.15169 0.966302 0.0 
1.22083 0.967639 0.0 
1.22219 0.968274 0.0 
3.5 0.970773 0.0 
1.76495 0.991474 0.0 
2.94711 0.968736 0.0 
1.40307 0.953015 0.0 
1.1943 0.979945 0.0 
2.06282 0.996354 0.0 
[...]
<PointData>
  <DataArray type = "Float64" Name="Vitesse" NumberOfComponents="3" format="ascii">
0.841745 0.0296241 0.0 
0.765916 -0.000271323 0.0 
1.02791 0.0289404 0.0 
0.377793 -0.0806899 0.0 
0.398625 -0.0760112 0.0 
0.595517 -0.00308212 0.0 
0.974524 0.00265542 0.0 
0.630747 -0.026613 0.0 
0.802843 0.0168834 0.0 
1.00294 -0.000516566 0.0 
0.86544 -0.00508607 0.0 
0.859549 0.00369778 0.0 
0.918971 0.0103818 0.0 
0.957324 0.0533002 0.0 
0.995967 -0.00309235 0.0 
0.731139 -0.000502215 0.0 
0.600155 -0.00346124 0.0 
0.978641 -0.00689597 0.0 
0.896725 0.000183568 0.0 
0.638165 -0.000675886 0.0 
0.283262 -0.00423486 0.0 
0.64537 -0.0186885 0.0 
0.949157 0.000142635 0.0 
0.162357 -0.128011 0.0 
0.793716 -0.000190139 0.0 
0.926752 0.00344549 0.0 
1.06198 -0.0363936 0.0 
0.915885 0.000137285 0.0 
0.637992 -0.00808786 0.0 
0.677334 -0.00228066 0.0 
0.972597 -0.0069528 0.0 
0.681777 -0.00622204 0.0 
0.861009 -0.00820974 0.0 
0.779673 -0.00429077 0.0 
0.592538 0.0104662 0.0 
0.970079 1.39433e-05 0.0 
0.868705 0.000295295 0.0 
0.769985 -0.0514677 0.0 
0.61215 -0.000418629 0.0 
0.625262 3.46113e-05 0.0 
0.822214 0.012523 0.0 
0.164584 -0.0589499 0.0 
0.963189 5.62898e-05 0.0 
0.809431 -0.0356525 0.0 
0.839171 0.00334819 0.0 
0.983621 -0.00508688 0.0 
0.328015 -0.00401123 0.0 
0.79131 -0.00039014 0.0 
0.719371 -0.00923378 0.0 
0.625336 0.00427139 0.0 
0.637817 0.00742743 0.0 
0.762776 -0.00163472 0.0 
0.464389 -0.0664987 0.0 
0.989395 -0.00626592 0.0 
0.932428 0.00266104 0.0 
0.951277 0.000173937 0.0 
0.877133 0.00028963 0.0 
0.74287 -0.00200988 0.0 
0.709959 -0.00041015 0.0 
0.948615 0.0579003 0.0 
0.934809 -0.0012454 0.0 
0.939902 0.0027492 0.0 
0.782153 -0.0447266 0.0 
0.816609 0.000243027 0.0 
0.266196 -0.0108111 0.0 
0.190292 -0.0669875 0.0 
0.652437 -0.0502101 0.0 
0.93092 0.000155489 0.0 
0.805195 0.0128304 0.0 
0.73761 -0.0013877 0.0 
0.973338 0.0587515 0.0 
0.833637 0.000339302 0.0 
0.785348 -0.000257354 0.0 
0.769756 -0.00069321 0.0 
1.01905 0.0411843 0.0 
0.836883 -0.0527802 0.0 
0.793802 -0.000149236 0.0 
0.58236 -0.0543138 0.0 
0.793425 -0.000646958 0.0 
0.898497 -0.00459727 0.0 
0.608719 -0.00335573 0.0 
0.384582 -0.0570883 0.0 
0.616546 -0.0407319 0.0 
0.877708 0.000223497 0.0 
0.810642 -0.00907414 0.0 
0.876553 0.0845453 0.0 
0.137244 -0.107627 0.0 
0.791756 -0.000521777 0.0 
0.757889 0.00601508 0.0 
0.931031 8.98312e-05 0.0 
0.979005 0.00676506 0.0 
0.839036 0.00026957 0.0 
0.815522 -0.0512259 0.0 
0.777069 0.000239117 0.0 
0.799934 9.1121e-06 0.0 
0.896059 0.00451178 0.0 
0.791669 -0.0494641 0.0 
0.742401 0.0335895 0.0 
0.818114 0.0369995 0.0 
0.665977 -0.00970402 0.0 
0.752466 -0.00112789 0.0 
0.734273 0.0380455 0.0 
0.755767 -0.00251947 0.0 
0.759834 -0.000204472 0.0 
0.976628 -0.00354578 0.0 
0.579895 -0.00113569 0.0 
0.532253 -0.0460329 0.0 
0.866227 0.000208436 0.0 
0.829661 0.000271476 0.0 
0.866626 0.000247049 0.0 
0.778777 -0.00118304 0.0 
0.859863 0.0643182 0.0 
0.383217 -0.0649944 0.0 
0.740867 -0.00167981 0.0 
0.771596 -0.00148708 0.0 
0.781114 -0.000979193 0.0 
0.725294 0.00708614 0.0 
1.02035 0.0535417 0.0 
0.748837 0.00312491 0.0 
0.964625 0.0290777 0.0 
0.702908 0.00313055 0.0 
0.884029 -0.00334061 0.0 
0.695622 -0.00261156 0.0 
0.741125 0.000666837 0.0 
0.894328 0.000252163 0.0 
0.840575 0.000245697 0.0 
0.492747 -0.0324042 0.0 
0.868356 0.0782391 0.0 
0.616094 -0.00738628 0.0 
0.629285 -0.00570405 0.0 
0.663919 -0.0173092 0.0 
0.741529 -0.00229876 0.0 
0.76515 -0.00956711 0.0 
0.754178 -0.001385 0.0 
0.338571 -0.0568851 0.0 
0.851771 0.0747601 0.0 
0.916095 0.000306473 0.0 
0.884475 -0.00253438 0.0 
0.73568 -0.0025995 0.0 
0.934726 0.000247047 0.0 
1.0045 -0.00293803 0.0 
0.236577 -0.12276 0.0 
0.741596 0.00502736 0.0 
0.833022 0.00042825 0.0 
0.765906 0.00629869 0.0 
0.756841 -0.00181479 0.0 
0.981363 -0.00699975 0.0 
0.775425 0.00240707 0.0 
0.68431 -0.00094326 0.0 
0.766202 -5.69271e-05 0.0 
0.884748 -0.00801545 0.0 
0.492653 -0.061748 0.0 
0.640089 -0.00189547 0.0 
0.772368 -0.0012598 0.0 
0.598957 -0.0278168 0.0 
0.459621 -0.0591062 0.0 
0.859648 0.000325572 0.0 
0.739995 0.00835997 0.0 
0.948357 7.75594e-05 0.0 
0.894609 -0.00634058 0.0 
0.604887 -0.00481654 0.0 
0.731971 -0.00156391 0.0 
0.723631 -0.00544385 0.0 
0.822501 0.00033484 0.0 
0.342497 -0.0907445 0.0 
0.740558 -0.00101447 0.0 
1.08241 -0.0159664 0.0 
0.138993 -0.14987 0.0 
0.300737 -0.0637201 0.0 
0.745612 -0.00130981 0.0 
0.658805 -0.00216308 0.0 
0.787709 -0.000815949 0.0 
0.757536 0.000325467 0.0 
0.774758 -0.039839 0.0 
0.771049 -0.000660368 0.0 
0.706995 -0.00782132 0.0 
0.772906 0.0174593 0.0 
0.702048 -0.0107532 0.0 
0.654181 0.00902241 0.0 
0.853754 -0.00500559 0.0 
0.930371 0.000352235 0.0 
0.731293 -0.00991081 0.0 
0.723069 -0.00913945 0.0 
0.760661 -0.000886699 0.0 
0.975796 -0.000501245 0.0 
0.421461 -0.0641495 0.0 
0.969245 0.000607834 0.0 
0.582831 -0.00179946 0.0 
0.702121 -0.00335295 0.0 
0.569119 -0.0495144 0.0 
0.80451 6.9243e-05 0.0 
0.756449 0.00495989 0.0 
0.750047 -0.00191799 0.0 
0.67192 -0.00593134 0.0 
0.664101 -0.00389441 0.0 
1.00161 0.00158362 0.0 
0.740135 -0.00293775 0.0 
0.713956 0.0357365 0.0 
0.8656 -0.0077555 0.0 
0.386385 -0.0526202 0.0 
0.540378 -0.0331322 0.0 
0.640309 -0.00333056 0.0 
0.729676 -0.000554477 0.0 
0.441825 -0.0557734 0.0 
0.975811 0.0168256 0.0 
1.02167 0.0649297 0.0 
0.578634 0.00644248 0.0 
0.788914 -0.00036214 0.0 
0.690126 0.00943852 0.0 
0.999145 0.000426759 0.0 
0.825787 0.0694349 0.0 
0.671259 -0.000524338 0.0 
0.778431 0.000337048 0.0 
0.580975 0.00908846 0.0 
0.778281 -7.43299e-05 0.0 
0.777968 -0.000493553 0.0 
0.651592 -0.00772634 0.0 
0.921814 3.3478e-05 0.0 
0.703339 0.00662824 0.0 
0.92732 0.000295346 0.0 
0.589821 0.00459648 0.0 
0.761358 -0.000681535 0.0 
0.707502 -0.00281334 0.0 
0.675579 -0.00254307 0.0 
0.22885 -0.0794206 0.0 
0.751032 -0.00161165 0.0 
0.662599 -0.00503948 0.0 
0.195519 -0.0787188 0.0 
0.749578 -0.00262175 0.0 
0.532847 -0.0488794 0.0 
0.113713 -0.127092 0.0 
0.607592 0.00187485 0.0 
0.665119 -0.00207364 0.0 
0.736906 -0.0481563 0.0 
0.619156 -0.0135046 0.0 
0.936049 -0.00605521 0.0 
1.00877 0.050027 0.0 
0.768064 -0.000903779 0.0 
0.785573 -0.000592878 0.0 
0.853302 0.0802106 0.0 
0.60914 0.00335869 0.0 
0.71355 -0.000900203 0.0 
0.649187 -0.00620528 0.0 
0.138791 -0.0906759 0.0 
0.634824 -0.0315713 0.0 
0.942847 0.000451175 0.0 
0.564248 -0.0415791 0.0 
0.834316 -0.048055 0.0 
0.670116 -0.0156631 0.0 
0.219607 -0.058107 0.0 
0.928286 0.000250942 0.0 
0.755837 0.000372057 0.0 
0.91195 0.000658272 0.0 
0.258346 -0.0687884 0.0 
0.850698 0.0698021 0.0 
0.65397 -0.00357999 0.0 
1.07472 -0.00545807 0.0 
0.799717 -6.11149e-05 0.0 
0.33157 -0.0894093 0.0 
0.695055 -0.048905 0.0 
0.616071 -0.018001 0.0 
0.848418 0.0413085 0.0 
0.408666 -0.0602341 0.0 
0.749885 -0.000136663 0.0 
0.67883 -0.0155212 0.0 
0.630653 -0.00405296 0.0 
0.771901 -0.00101605 0.0 
0.96999 0.0376026 0.0 
0.656816 -0.00841913 0.0 
1.07306 -0.0164457 0.0 
0.159978 -0.0804483 0.0 
0.567968 -0.014717 0.0 
0.111894 -0.099769 0.0 
0.776889 -0.000416457 0.0 
0.673889 -0.00206717 0.0 
1.09887 0.00927819 0.0 
0.557003 -0.0550581 0.0 
0.165976 -0.103797 0.0 
0.27249 -0.10819 0.0 
0.788268 0.000125758 0.0 
0.664304 -0.0126757 0.0 
0.858021 -0.00767623 0.0 
0.296962 -0.103442 0.0 
0.764563 -0.000133087 0.0 
0.946792 -0.0323611 0.0 
0.736268 -0.000990213 0.0 
0.787951 0.053893 0.0 
0.711606 -0.00173218 0.0 
0.762477 -0.00121625 0.0 
0.493016 -0.0585193 0.0 
0.288262 -0.0538718 0.0 
0.481348 -0.0604957 0.0 
1.08103 -0.0697959 0.0 
0.804504 -0.0530373 0.0 
0.830519 0.00442638 0.0 
0.704587 -1.20189e-05 0.0 
0.745326 0.00275345 0.0 
0.897214 0.0817646 0.0 
0.863025 0.00521975 0.0 
0.748522 0.000103524 0.0 
0.789068 -0.0526798 0.0 
0.743364 -0.00102142 0.0 
0.714822 -0.048759 0.0 
0.689693 -0.00304988 0.0 
0.141962 -0.123425 0.0 
0.777671 -0.000733548 0.0 
0.622016 -0.00635836 0.0 
0.765027 6.38389e-05 0.0 
0.0795049 -0.167042 0.0 
0.959963 -0.0612356 0.0 
0.985338 0.0413979 0.0 
0.684389 -0.00817493 0.0 
0.0938551 -0.142178 0.0 
0.980164 -0.00784895 0.0 
0.732524 -0.000764171 0.0 
0.723542 -0.00710099 0.0 
0.646165 -0.00269774 0.0 
0.880398 -0.0057599 0.0 
1.00151 0.0670352 0.0 
0.719249 -0.0029602 0.0 
0.591906 0.000747249 0.0 
0.845766 0.00579158 0.0 
0.454265 -0.0638848 0.0 
0.638864 -0.051742 0.0 
0.688409 -0.00220718 0.0 
0.63755 0.000102424 0.0 
0.637829 -0.00765485 0.0 
0.79219 -2.72238e-05 0.0 
0.634896 0.00703886 0.0 
0.725167 0.00470906 0.0 
0.826869 -0.00861517 0.0 
0.61108 -0.001908 0.0 
0.652808 0.0103208 0.0 
0.917304 -0.0583634 0.0 
0.757542 0.00697983 0.0 
0.752919 -0.00106541 0.0 
0.48872 -0.0146366 0.0 
0.688822 -0.0506238 0.0 
0.0930835 -0.134246 0.0 
0.61701 0.00134702 0.0 
0.66573 -0.00311776 0.0 
0.357081 -0.0620693 0.0 
0.688679 -0.0080226 0.0 
0.644533 -0.00221632 0.0 
0.917364 -0.0392468 0.0 
0.173795 -0.0733785 0.0 
0.668322 -0.00166427 0.0 
0.0995668 -0.118531 0.0 
0.773795 -0.0476605 0.0 
0.8227 0.00208435 0.0 
0.802954 3.16689e-05 0.0 
0.868888 0.00370815 0.0 
1.08885 -0.0126318 0.0 
0.728134 -0.0043305 0.0 
0.695443 -0.00404927 0.0 
0.712693 0.00420569 0.0 
0.197749 -0.100414 0.0 
0.903309 0.08149 0.0 
0.601384 -0.0530771 0.0 
0.858207 -0.0367274 0.0 
0.733028 -0.000123729 0.0 
0.854361 0.00104642 0.0 
0.709277 -0.0434631 0.0 
0.718091 -0.00254996 0.0 
0.299311 -0.099638 0.0 
0.940022 -0.000219163 0.0 
0.781374 -0.000141352 0.0 
0.735468 0.000252875 0.0 
0.441192 -0.0650664 0.0 
0.948001 0.052541 0.0 
0.756023 -0.00574689 0.0 
0.964738 0.0737402 0.0 
0.0908304 -0.160038 0.0 
0.648926 -0.0166884 0.0 
0.980526 -0.016063 0.0 
0.824483 0.00559433 0.0 
0.984391 0.0756148 0.0 
0.941176 -0.000423287 0.0 
0.954948 -0.000891426 0.0 
0.533596 -0.0570633 0.0 
0.705929 -0.0015594 0.0 
0.727788 -0.00284168 0.0 
0.72502 -0.00411953 0.0 
0.790702 -0.0534153 0.0 
0.522633 -0.0586927 0.0 
0.887401 0.0680468 0.0 
0.914726 -0.000365637 0.0 
0.137649 -0.0982277 0.0 
0.586319 0.0107191 0.0 
0.695629 -0.0132069 0.0 
0.879263 -0.0278995 0.0 
0.65771 -0.00129528 0.0 
0.845296 -0.0463658 0.0 
0.683562 -0.00415804 0.0 
0.588564 -0.00261672 0.0 
0.663061 -0.00270467 0.0 
0.615066 -0.0316728 0.0 
0.758671 0.0108997 0.0 
0.711198 -0.0133289 0.0 
0.684824 -0.00170772 0.0 
0.685049 0.00313832 0.0 
0.105114 -0.150736 0.0 
1.0031 0.0626825 0.0 
0.761746 -0.0518886 0.0 
0.853632 0.0003114 0.0 
0.646832 -0.00307719 0.0 
0.347788 -0.0286268 0.0 
0.828024 0.0532568 0.0 
0.922824 -0.0610776 0.0 
0.659951 0.00785419 0.0 
0.753828 -0.0520426 0.0 
0.817424 -0.0447373 0.0 
0.616033 -0.0148712 0.0 
0.62999 -0.00392979 0.0 
0.670615 -0.0153624 0.0 
0.721384 -0.00448128 0.0 
0.593372 -0.0105029 0.0 
0.692711 -0.0089323 0.0 
0.745735 0.0168787 0.0 
0.627374 -0.019444 0.0 
0.816748 0.000499799 0.0 
0.484273 -0.0379605 0.0 
0.224789 -0.0726722 0.0 
0.87002 0.000604216 0.0 
0.563152 -0.0524588 0.0 
0.635464 0.0108148 0.0 
0.775777 -0.000275982 0.0 
0.925584 0.0295421 0.0 
0.915885 0.0719522 0.0 
0.687772 -0.0106392 0.0 
0.116066 -0.136204 0.0 
0.798248 0.0639095 0.0 
0.50366 -0.0503971 0.0 
0.362175 -0.0860818 0.0 
0.979346 0.0618544 0.0 
0.711072 0.00062319 0.0 
0.916754 0.0350027 0.0 
0.858807 0.00455917 0.0 
0.706403 0.00111606 0.0 
0.795954 0.0499314 0.0 
0.564242 0.0204916 0.0 
0.894868 -0.0539255 0.0 
0.841248 0.0297633 0.0 
0.82107 0.0311741 0.0 
0.809078 0.000173736 0.0 
0.606089 -0.00669942 0.0 
0.794486 -3.02027e-05 0.0 
0.943234 -0.00777824 0.0 
0.163029 -0.138543 0.0 
0.688686 -0.0034367 0.0 
0.254635 -0.0605849 0.0 
0.228986 -0.0656215 0.0 
0.633785 -0.0172813 0.0 
0.679179 -0.00418738 0.0 
0.878645 0.0725442 0.0 
0.785531 -0.00014467 0.0 
0.119355 -0.142826 0.0 
0.238142 -0.0514165 0.0 
0.74773 -0.00806511 0.0 
0.993973 -0.00499741 0.0 
0.813916 -0.0406996 0.0 
0.641604 -0.00442938 0.0 
0.635006 -0.012358 0.0 
0.796189 -1.55008e-05 0.0 
0.947568 -2.67107e-05 0.0 
0.219167 -0.126149 0.0 
1.01877 -0.0105785 0.0 
0.643984 -0.00700032 0.0 
0.755885 0.00236161 0.0 
0.783269 2.07552e-05 0.0 
0.772953 0.0105801 0.0 
0.901818 -0.0605012 0.0 
0.74895 -0.000433394 0.0 
0.670515 -0.0426976 0.0 
0.8461 0.00984899 0.0 
0.728096 -0.000959558 0.0 
0.219468 -0.122828 0.0 
0.610413 -0.0386636 0.0 
0.584581 0.0122529 0.0 
0.736331 0.00761813 0.0 
0.721539 -0.00470542 0.0 
0.68578 -0.005791 0.0 
0.594372 -0.0458026 0.0 
0.693576 -0.00176371 0.0 
0.852764 0.000254349 0.0 
0.633583 -0.0199741 0.0 
0.988901 -0.00746013 0.0 
0.762869 -0.00217557 0.0 
0.812936 0.0593783 0.0 
0.965676 -0.0541099 0.0 
0.85284 0.0550412 0.0 
0.744053 -0.0451604 0.0 
0.893708 0.0835312 0.0 
0.701969 -0.00197215 0.0 
0.638663 -0.00301319 0.0 
0.784625 4.5102e-05 0.0 
0.935907 -2.5966e-05 0.0 
0.60886 0.00911234 0.0 
0.505957 -0.0574285 0.0 
0.751416 0.00793175 0.0 
0.829097 0.075824 0.0 
0.804498 -0.00921355 0.0 
0.135259 -0.130957 0.0 
0.895919 0.000613878 0.0 
0.640989 0.0041995 0.0 
1.04724 0.0485943 0.0 
0.643285 -0.0390889 0.0 
0.903872 0.0652158 0.0 
0.902417 0.0740255 0.0 
0.73864 -0.00665751 0.0 
0.67668 -0.0128973 0.0 
0.880001 -0.00751481 0.0 
0.849477 0.00871045 0.0 
0.824324 0.014365 0.0 
0.928291 0.000762564 0.0 
0.709094 -0.0041212 0.0 
0.782449 0.0211292 0.0 
0.702157 -0.000214117 0.0 
0.624894 -0.00473543 0.0 
0.877358 -0.0565289 0.0 
0.9122 0.000208207 0.0 
0.643986 0.00797139 0.0 
0.723823 -0.0506342 0.0 
0.635114 -0.0514176 0.0 
0.936906 -0.0384936 0.0 
0.717544 -2.60158e-05 0.0 
0.63801 -0.0155035 0.0 
0.660714 -0.0066232 0.0 
0.338414 -0.0327409 0.0 
0.64932 0.00103586 0.0 
0.953757 -0.000744161 0.0 
0.927853 -0.00058906 0.0 
0.836116 0.0635316 0.0 
0.579439 -0.0531512 0.0 
0.663889 -0.00176223 0.0 
0.901872 -0.00750058 0.0 
0.768571 -0.00882195 0.0 
0.945223 0.0651909 0.0 
0.764702 -0.000172263 0.0 
0.963438 -0.000117596 0.0 
0.583803 -0.0238232 0.0 
0.891152 0.0779047 0.0 
0.782499 -0.000222121 0.0 
0.697001 -0.000794946 0.0 
0.762648 -0.00338411 0.0 
0.772549 0.0327454 0.0 
0.717438 0.00661421 0.0 
0.691389 -0.00538766 0.0 
0.379951 -0.0771451 0.0 
1.04859 -0.0324285 0.0 
0.291948 -0.0946335 0.0 
0.626464 -0.0071332 0.0 
0.58752 -0.00375698 0.0 
0.683353 -0.00260652 0.0 
0.938284 0.00023743 0.0 
0.509167 -0.0549264 0.0 
0.644816 -0.00224687 0.0 
0.595987 -0.00153419 0.0 
0.167896 -0.11007 0.0 
0.758218 0.0241115 0.0 
0.775078 0.0196882 0.0 
0.952892 0.0344981 0.0 
0.891149 0.000130218 0.0 
0.782474 -0.000211617 0.0 
0.571372 0.00419875 0.0 
0.784337 0.00027813 0.0 
0.486344 -0.0256273 0.0 
0.947917 -0.0645759 0.0 
0.765845 0.00173043 0.0 
0.779734 0.0138229 0.0 
0.867215 0.0833834 0.0 
0.907621 0.000360897 0.0 
0.634051 -0.0182774 0.0 
0.407121 -0.0353147 0.0 
0.865936 -0.057355 0.0 
0.446609 -0.0432895 0.0 
0.887409 0.000412876 0.0 
0.933358 0.0140664 0.0 
0.782534 0.000475423 0.0 
0.971063 0.0511111 0.0 
0.713631 -0.00326077 0.0 
0.918896 -2.99097e-05 0.0 
0.155386 -0.116037 0.0 
0.926103 0.0167863 0.0 
0.795874 -0.00037108 0.0 
0.743112 -0.0116081 0.0 
0.735815 0.0225739 0.0 
0.647348 -0.0211617 0.0 
0.651762 0.00639378 0.0 
0.605214 -0.0218816 0.0 
0.84837 0.00561607 0.0 
0.576812 0.0112256 0.0 
0.789565 -0.000270628 0.0 
0.570206 -0.0372041 0.0 
0.901959 -0.00373637 0.0 
0.701765 -0.0218389 0.0 
0.599051 -0.0317949 0.0 
0.947405 -0.000650122 0.0 
0.613827 -0.0111988 0.0 
0.977091 0.000786989 0.0 
0.946284 -0.000744729 0.0 
0.6597 -0.00405438 0.0 
0.788904 0.00224761 0.0 
0.90412 0.000343513 0.0 
0.656457 -0.00109303 0.0 
0.872215 -3.72466e-05 0.0 
0.784718 0.000488548 0.0 
0.607708 -0.00492706 0.0 
0.964448 -1.14258e-05 0.0 
0.384998 -0.0407174 0.0 
0.973761 0.000623642 0.0 
0.635513 0.00388671 0.0 
0.648866 0.0105814 0.0 
0.276031 -0.101227 0.0 
0.745014 0.015722 0.0 
0.615418 -0.0223882 0.0 
0.126218 -0.116427 0.0 
0.813702 0.0433296 0.0 
0.577284 -0.0509026 0.0 
0.77189 -0.00142636 0.0 
0.85934 -0.0179973 0.0 
0.143944 -0.136985 0.0 
0.321885 -0.0886829 0.0 
0.330638 -0.0935899 0.0 
0.985459 -0.00742024 0.0 
0.650863 -0.00473273 0.0 
0.585564 0.00246551 0.0 
0.229791 -0.116976 0.0 
0.634804 -0.00409651 0.0 
0.885522 0.000303871 0.0 
0.705352 -0.00867447 0.0 
0.782585 0.0417081 0.0 
0.808655 0.000160867 0.0 
0.500551 -0.0512417 0.0 
0.770916 -0.0497421 0.0 
0.792707 0.00562916 0.0 
0.661392 -0.016497 0.0 
0.916538 0.0179868 0.0 
0.614121 -0.0221518 0.0 
1.11034 -0.0390375 0.0 
0.739473 -0.000128972 0.0 
0.863813 -0.0464982 0.0 
1.02922 0.0632378 0.0 
0.675767 -0.00533334 0.0 
0.616652 -0.0400694 0.0 
0.549035 -0.0447736 0.0 
0.946596 0.000773014 0.0 
0.72586 -0.00216829 0.0 
0.877815 0.00038633 0.0 
0.917086 0.0148918 0.0 
0.890932 -0.0396064 0.0 
0.471547 -0.0476607 0.0 
0.964507 0.00313672 0.0 
0.675735 -0.00346205 0.0 
0.853128 0.000286246 0.0 
0.964395 0.0608328 0.0 
0.915335 0.0245297 0.0 
0.139339 -0.144381 0.0 
0.920654 0.000554047 0.0 
0.676101 -0.00755609 0.0 
0.28446 -0.0779668 0.0 
0.414353 -0.0472508 0.0 
0.677462 -0.000667241 0.0 
1.06545 -0.00771441 0.0 
0.697935 -0.00295694 0.0 
0.74783 -0.0497819 0.0 
0.653085 -0.00995257 0.0 
0.859559 -0.00679724 0.0 
0.404413 -0.0681676 0.0 
0.781342 0.000670346 0.0 
0.958077 0.0642143 0.0 
0.768197 -0.00533479 0.0 
0.939329 -0.0501284 0.0 
0.914894 -0.0149017 0.0 
0.889809 -0.0511722 0.0 
0.838096 -0.00856895 0.0 
0.165825 -0.0956356 0.0 
0.736729 -0.000152577 0.0 
0.92073 -0.060927 0.0 
0.683375 -0.0156399 0.0 
0.69651 -0.00938327 0.0 
0.649381 -0.00834341 0.0 
0.848944 0.047217 0.0 
1.00443 -0.00137253 0.0 
0.944428 0.0554831 0.0 
0.941116 0.025479 0.0 
0.560733 -0.0195442 0.0 
1.07541 0.0191692 0.0 
0.697124 -0.00495933 0.0 
0.669973 -0.00756365 0.0 
0.664171 -0.0226973 0.0 
0.803006 0.000431429 0.0 
0.808116 0.000422772 0.0 
0.601866 -0.00594533 0.0 
0.430375 -0.070899 0.0 
0.362109 -0.0835277 0.0 
1.00021 -0.00522421 0.0 
0.826621 0.000213936 0.0 
0.626095 -0.00538991 0.0 
0.919514 0.00246704 0.0 
0.902183 -0.00773571 0.0 
0.783558 -0.000423074 0.0 
0.810017 0.00623027 0.0 
0.964796 -0.0661567 0.0 
0.85663 -0.00651415 0.0 
0.638656 0.00209188 0.0 
0.963306 0.00224735 0.0 
0.883362 -0.0010499 0.0 
0.899954 0.000683319 0.0 
0.781309 0.00233976 0.0 
0.913171 0.0220973 0.0 
0.903087 0.00220785 0.0 
0.594997 -0.0516021 0.0 
0.616062 0.0114754 0.0 
0.882371 0.000419192 0.0 
1.04481 -0.0757398 0.0 
0.492565 0.003094 0.0 
1.0421 0.0257247 0.0 
0.738097 -0.00876197 0.0 
0.983322 -0.0672477 0.0 
0.65359 0.0101446 0.0 
0.93901 0.0388694 0.0 
0.551106 -0.0402842 0.0 
0.903808 -0.00281577 0.0 
0.668507 -0.0451858 0.0 
0.766713 0.0507102 0.0 
0.431947 -0.0227873 0.0 
0.960593 -0.00103744 0.0 
0.851637 -0.0566565 0.0 
0.954254 0.00330215 0.0 
0.698335 0.0275966 0.0 
0.84951 0.000341751 0.0 
0.835282 0.000391901 0.0 
0.255779 -0.0947929 0.0 
0.84231 -0.0413435 0.0 
0.611763 0.0148248 0.0 
0.913161 0.00025814 0.0 
0.773015 0.00495673 0.0 
0.64787 -0.00268669 0.0 
0.690844 0.00186599 0.0 
0.713805 -0.000956489 0.0 
0.610414 0.00352443 0.0 
0.559605 -0.0544205 0.0 
0.973841 0.0473409 0.0 
0.939521 -0.000665414 0.0 
0.355504 -0.0463004 0.0 
0.801211 -0.00326499 0.0 
0.789657 0.000215236 0.0 
0.408196 -0.0760801 0.0 
0.648854 -0.0184596 0.0 
0.805351 0.000352615 0.0 
0.583161 -0.000364633 0.0 
0.452692 -0.0519874 0.0 
0.601305 -0.0492709 0.0 
0.813046 0.000304448 0.0 
0.915838 -0.00361716 0.0 
0.869226 0.00519035 0.0 
0.153957 -0.0682789 0.0 
0.708785 -0.0462765 0.0 
0.848332 0.000333482 0.0 
0.332453 -0.0511549 0.0 
0.733773 0.00956481 0.0 
1.05506 0.0194464 0.0 
0.955142 0.0432739 0.0 
1.00382 0.0269607 0.0 
0.322916 -0.0939193 0.0 
0.934716 -0.000527776 0.0 
0.82465 0.00172891 0.0 
0.664019 -0.0012334 0.0 
0.961591 -0.00676298 0.0 
0.42399 -0.0289795 0.0 
0.980283 0.0736088 0.0 
0.742085 -0.00807979 0.0 
0.960626 -0.00034028 0.0 
0.641198 0.0100474 0.0 
0.883915 0.00152797 0.0 
0.878604 0.0573733 0.0 
0.685179 -0.000418853 0.0 
0.780459 -0.015978 0.0 
0.865287 0.0301467 0.0 
0.699128 -0.0285084 0.0 
0.782698 0.000493293 0.0 
0.889254 -0.0514605 0.0 
0.8933 0.00142409 0.0 
0.266958 -0.0882071 0.0 
0.722706 -0.000215636 0.0 
0.75829 -0.0103684 0.0 
0.88012 0.0816626 0.0 
0.279882 -0.108868 0.0 
0.913614 0.0622301 0.0 
0.872902 0.00181413 0.0 
0.819032 0.00013578 0.0 