<VTKFile type="UnstructuredGrid" version="0.1" byte_order="LittleEndian">
  <UnstructuredGrid>
    <Piece NumberOfPoints="16391" NumberOfCells="32292">
      <Points>
        <DataArray type = "Float64" NumberOfComponents="3" format="ascii">
1.66259 1.55403 0.0 
1.5496 0.94188 0.0 
0.531534 0.63847 0.0 
1.82689 0.951271 0.0 
1.70672 0.939134 0.0 
3.39747 1.05704 0.0 
0.995517 1.02983 0.0 
0.980952 1.04644 0.0 
0.959389 1.03565 0.0 
2.25387 1.04131 0.0 
1.92942 0.933101 0.0 
2.20248 0.992483 0.0 
2.21766 0.962487 0.0 
2.96141 1.00461 0.0 
3.21327 1.04675 0.0 
3.38728 0.912365 0.0 
0.971004 1.03046 0.0 
2.5059 0.926807 0.0 
1.40861 0.939228 0.0 
2.69702 0.928283 0.0 
2.73812 0.963375 0.0 
2.10083 0.931933 0.0 
2.99561 0.920729 0.0 
2.3113 0.928608 0.0 
1.00817 1.01399 0.0 
0.994315 1.01059 0.0 
1.00859 1.0132 0.0 
3.11784 0.996111 0.0 
1.72822 0.934589 0.0 
0.994134 1.006 0.0 
0.993294 1.00584 0.0 
0.963382 1.04369 0.0 
2.46075 0.911827 0.0 
1.60126 0.943153 0.0 
0.999497 1.03195 0.0 
0.910943 1.127 0.0 
0.959993 1.0304 0.0 
1.373 0.954987 0.0 
0.997008 1.01607 0.0 
2.17479 1.00725 0.0 
1.01051 1.01146 0.0 
0.994543 1.02872 0.0 
1.0109 1.01177 0.0 
0.990522 1.03141 0.0 
2.68501 0.922257 0.0 
1.76224 0.937758 0.0 
3.42846 0.962038 0.0 
1.59316 0.938229 0.0 
2.28896 0.949436 0.0 
2.15033 0.974038 0.0 
1.69067 1.77359 0.0 
3.19526 0.972515 0.0 
0.315672 0.731317 0.0 
0.996464 1.02529 0.0 
2.96467 0.980124 0.0 
1.66514 0.954642 0.0 
0.976214 1.02638 0.0 
1.00855 1.0158 0.0 
1.40922 1.0902 0.0 
1.01126 1.01913 0.0 
0.982372 1.0186 0.0 
2.64982 0.991481 0.0 
0.991101 1.02364 0.0 
0.996955 1.0029 0.0 
3.5 0.975721 0.0 
0.986977 1.0237 0.0 
3.16918 0.920677 0.0 
0.992004 1.01913 0.0 
1.54757 0.930794 0.0 
1.01177 1.01465 0.0 
1.52616 0.93599 0.0 
1.01254 1.01292 0.0 
1.00537 1.01209 0.0 
0.992268 1.01784 0.0 
1.97531 0.956371 0.0 
0.645322 1.10344 0.0 
0.996783 1.01802 0.0 
0.987996 1.01125 0.0 
0.979875 1.24921 0.0 
0.993279 1.00489 0.0 
1.00081 1.00359 0.0 
0.990186 1.00686 0.0 
3.33933 0.917963 0.0 
0.994603 1.00137 0.0 
1.49722 0.95028 0.0 
0.998134 1.00274 0.0 
0.991074 1.00747 0.0 
0.989271 1.0113 0.0 
0.994734 1.00544 0.0 
1.88973 0.929561 0.0 
0.710045 1.09515 0.0 
1.00879 1.01641 0.0 
1.86634 0.94913 0.0 
1.01212 1.01265 0.0 
1.97217 1.24776 0.0 
0.981747 1.02935 0.0 
3.00787 0.990723 0.0 
1.00556 1.01134 0.0 
1.00288 1.00357 0.0 
3.32124 0.955174 0.0 
1.62113 0.946703 0.0 
0.981705 1.01653 0.0 
2.04812 0.940531 0.0 
0.997494 1.00246 0.0 
1.01167 1.01313 0.0 
0.980809 1.03189 0.0 
1.02633 1.15697 0.0 
2.41117 0.931065 0.0 
0.992108 1.00807 0.0 
2.90704 1.04967 0.0 
0.999798 1.00369 0.0 
0.991739 1.00924 0.0 
1.01073 1.01387 0.0 
0.973791 1.01246 0.0 
2.10724 1.04404 0.0 
1.62344 0.934816 0.0 
1.48288 0.930865 0.0 
0.924939 1.11722 0.0 
0.988596 1.06529 0.0 
1.64648 0.947723 0.0 
2.29166 0.985304 0.0 
0.981771 1.02325 0.0 
2.16923 0.995173 0.0 
1.6547 0.952611 0.0 
0.99253 1.00609 0.0 
1.00457 1.01977 0.0 
1.00462 1.02132 0.0 
0.992798 1.00692 0.0 
2.08641 1.048 0.0 
1.00525 1.02269 0.0 
1.01233 1.01278 0.0 
0 0 0.0 
0.990658 1.06082 0.0 
2.4805 0.978996 0.0 
1.7712 1.04268 0.0 
0.991929 1.00692 0.0 
0.908057 1.11062 0.0 
2.51679 0.990106 0.0 
2.18041 0.922546 0.0 
0.990131 1.00814 0.0 
0.995591 1.0045 0.0 
0.988812 1.00988 0.0 
1.01334 1.01451 0.0 
1.00234 1.01843 0.0 
1.01061 1.01642 0.0 
1.00292 1.00791 0.0 
0.983782 1.01536 0.0 
1.00085 1.0233 0.0 
0.988436 1.00857 0.0 
1.6441 0.937 0.0 
0.996081 1.03379 0.0 
1.00614 1.01187 0.0 
3.01053 0.951408 0.0 
1.61153 0.945091 0.0 
3.40155 0.932965 0.0 
1.011 1.01675 0.0 
2.83308 0.985844 0.0 
0.993624 1.00678 0.0 
1.47094 1.04813 0.0 
1.41489 0.953015 0.0 
1.00907 1.01517 0.0 
3.5 1.03158 0.0 
1.6627 0.939093 0.0 
0.974947 1.02963 0.0 
1.00227 1.02594 0.0 
2.05809 0.920147 0.0 
1.01277 1.02003 0.0 
0.989291 1.0088 0.0 
0.991036 1.00857 0.0 
1.54884 0.95323 0.0 
2.96174 0.895143 0.0 
1.94511 0.94908 0.0 
0.996255 1.00297 0.0 
1.01487 1.01689 0.0 
1.48742 0.957765 0.0 
1.56253 1.07578 0.0 
3.5 0.998871 0.0 
2.81381 1.06144 0.0 
3.03724 0.983177 0.0 
1.43091 0.935742 0.0 
1.00487 1.01587 0.0 
1.00801 1.02001 0.0 
1.55912 0.939964 0.0 
2.74801 0.891384 0.0 
0.989466 1.00628 0.0 
1.60372 0.916651 0.0 
0.994842 1.00465 0.0 
2.50076 1.05968 0.0 
3.28204 0.982394 0.0 
1.00833 1.01522 0.0 
0.996513 1.00525 0.0 
3.5 0.907349 0.0 
0.993534 1.04137 0.0 
3.00907 0.970513 0.0 
0.985933 1.00556 0.0 
1.00197 1.01369 0.0 
0.992226 1.02815 0.0 
1.00312 1.02757 0.0 
1.66521 0.951308 0.0 
3.5 0.992842 0.0 
0.977475 1.01552 0.0 
0.996979 1.05684 0.0 
1.00765 1.0142 0.0 
0.98626 1.02831 0.0 
1.57328 0.951614 0.0 
0.999537 1.05314 0.0 
1.00511 1.01876 0.0 
1.01191 1.01532 0.0 
1.28109 0.258179 0.0 
2.45273 0.977262 0.0 
1.54903 0.937937 0.0 
3.4101 0.971671 0.0 
0.998092 1.0156 0.0 
1.51174 0.933034 0.0 
0.991669 1.02049 0.0 
0.999816 1.0061 0.0 
1.00652 1.01567 0.0 
1.01238 1.01351 0.0 
0.980851 1.02014 0.0 
0.994631 1.01733 0.0 
0.998716 1.01993 0.0 
1.66201 0.949382 0.0 
0.743514 1.63786 0.0 
1.00262 1.03129 0.0 
0.608889 0.906681 0.0 
0.998225 1.02466 0.0 
1.44394 0.957193 0.0 
0.954439 1.0597 0.0 
0.984976 1.00628 0.0 
1.63621 0.949737 0.0 
1.51418 0.938433 0.0 
0.997636 1.00339 0.0 
1.00865 1.01787 0.0 
1.79987 0.933751 0.0 
3.02428 0.902254 0.0 
0.985327 1.01259 0.0 
2.69349 0.987105 0.0 
0.99839 1.0038 0.0 
1.64128 0.953308 0.0 
0.997736 1.01896 0.0 
2.40122 0.918547 0.0 
2.25649 0.908708 0.0 
0.994326 1.00402 0.0 
0.99187 1.0056 0.0 
0.953129 1.05395 0.0 
1.00322 1.0072 0.0 
1.00527 1.01778 0.0 
0.685473 0.952721 0.0 
0.541131 0.949068 0.0 
1.0037 1.00843 0.0 
1.00049 1.00647 0.0 
2.79593 0.990181 0.0 
0.500683 0.830105 0.0 
1.00895 1.01269 0.0 
1.01024 1.017 0.0 
1.00746 1.01224 0.0 
1.59126 0.933695 0.0 
0.997176 1.00902 0.0 
0.993985 1.00497 0.0 
1.01222 1.01769 0.0 
0.993596 1.00414 0.0 
0.995112 1.00385 0.0 
1.00556 1.01052 0.0 
0.857287 1.11208 0.0 
1.01119 1.01498 0.0 
2.34936 1.00486 0.0 
0.843176 1.14535 0.0 
1.00097 1.00426 0.0 
0.995922 1.00373 0.0 
2.19812 0.927008 0.0 
0.971594 1.01703 0.0 
1.01204 1.01407 0.0 
1.39637 0.944243 0.0 
1.01157 1.01724 0.0 
1.0063 1.00836 0.0 
1.00171 1.00701 0.0 
3.32449 1.06333 0.0 
1.00897 1.01714 0.0 
0.433228 0.95319 0.0 
0.697821 1.28131 0.0 
2.82325 0.943408 0.0 
2.68819 0.90732 0.0 
1.56668 0.943193 0.0 
1.0121 1.01934 0.0 
3.5 1.06285 0.0 
0.996032 1.08767 0.0 
3.34459 0.905985 0.0 
3.13859 0.898632 0.0 
3.16851 0.860862 0.0 
2.1542 1.02533 0.0 
2.2356 0.916031 0.0 
2.57377 0.944537 0.0 
1.47583 0.963259 0.0 
1.00238 1.00301 0.0 
1.89297 0.951531 0.0 
1.49894 0.936652 0.0 
2.44034 0.992307 0.0 
0.755401 1.1185 0.0 
0.963971 1.03324 0.0 
3.29297 1.03963 0.0 
1.01241 1.01462 0.0 
0.998548 1.00446 0.0 
0.994613 1.00772 0.0 
0.984634 1.02348 0.0 
1.00932 1.01595 0.0 
0.96426 1.02826 0.0 
0.989995 1.00965 0.0 
0.876353 1.16186 0.0 
0.968931 1.06959 0.0 
0.746227 1.06297 0.0 
3.17818 0.938029 0.0 
0.980088 1.01697 0.0 
1.00864 1.0138 0.0 
1.51238 0.929315 0.0 
0.482493 0.42284 0.0 
0.986021 1.02606 0.0 
1.4973 0.966425 0.0 
2.69684 0.955674 0.0 
3.00717 0.94621 0.0 
1.71914 0.946158 0.0 
2.52055 0.921413 0.0 
1.96552 0.943822 0.0 
3.22466 1.00378 0.0 
1.00913 1.01199 0.0 
0.519147 1.74 0.0 
1.00714 1.01492 0.0 
0.986708 1.01255 0.0 
1.62138 0.953402 0.0 
0.98729 1.00835 0.0 
0.996904 1.0223 0.0 
0.978752 1.01192 0.0 
1.00284 1.01338 0.0 
0.878358 1.0951 0.0 
1.00754 1.02077 0.0 
1.01175 1.01589 0.0 
3.05756 0.914545 0.0 
3.42473 0.967272 0.0 
1.01296 1.01318 0.0 
1.00114 1.02037 0.0 
2.00138 0.953362 0.0 
1.01348 1.01856 0.0 
1.00673 1.01414 0.0 
1.00797 1.01334 0.0 
1.00594 1.01353 0.0 
3.2155 0.985194 0.0 
0.995851 1.00236 0.0 
1.0003 1.01147 0.0 
3.41342 0.992927 0.0 
1.00565 1.0195 0.0 
1.00729 1.01358 0.0 
1.47491 0.949423 0.0 
1.00752 1.01916 0.0 
0.997525 1.02024 0.0 
1.00161 1.00588 0.0 
1.01163 1.0203 0.0 
1.43193 1.47174 0.0 
0.991234 1.01252 0.0 
2.85152 1.04437 0.0 
1.00636 1.01487 0.0 
1.00097 1.01401 0.0 
0.990534 1.01959 0.0 
1.48453 1.05737 0.0 
1.73964 0.940688 0.0 
0.976013 1.0406 0.0 
1.01227 1.01687 0.0 
1.01166 1.01642 0.0 
1.44282 1.10743 0.0 
3.27975 0.992732 0.0 
0.254511 0.399396 0.0 
1.00223 1.00464 0.0 
1.86709 0.922225 0.0 
1.00202 1.00542 0.0 
3.3822 1.04362 0.0 
1.49122 0.938719 0.0 
2.08494 0.952092 0.0 
0.994722 1.00261 0.0 
0.997806 1.00408 0.0 
2.05672 1.04038 0.0 
0.989995 1.02089 0.0 
2.13634 0.981866 0.0 
2.35293 0.924154 0.0 
1.00705 1.02164 0.0 
3.03686 0.995326 0.0 
1.41092 1.63158 0.0 
1.22037 1.63323 0.0 
1.53562 0.925207 0.0 
3.5 0.898642 0.0 
0.993845 1.00327 0.0 
1.01156 1.01804 0.0 
1.00238 1.01716 0.0 
0.997704 1.01185 0.0 
2.40951 1.03822 0.0 
1.00014 1.0131 0.0 
1.69752 1.04485 0.0 
0.994577 1.00324 0.0 
1.01563 1.0172 0.0 
0.994069 1.02096 0.0 
3.05817 0.936868 0.0 
1.01031 1.01131 0.0 
0.987881 1.00974 0.0 
0.706223 0.752391 0.0 
1.75571 0.930683 0.0 
3.15924 0.906087 0.0 
2.53247 1.00725 0.0 
1.00018 1.01007 0.0 
2.32786 0.942138 0.0 
0.988021 1.02154 0.0 
0.998531 1.01636 0.0 
2.23895 0.977491 0.0 
0.990517 1.02525 0.0 
1.58996 1.0959 0.0 
1.67 0.933785 0.0 
2.71456 0.89985 0.0 
3.27818 0.898531 0.0 
2.87334 0.917505 0.0 
3.0565 1.05224 0.0 
0.990973 1.00974 0.0 
0.997045 1.00058 0.0 
2.03528 0.915206 0.0 
2.9695 0.741931 0.0 
0.979842 1.00907 0.0 
1.00881 1.02136 0.0 
1.0683 1.71726 0.0 
1.44867 1.07763 0.0 
1.52567 0.945423 0.0 
1.01361 1.01356 0.0 
2.73866 1.10326 0.0 
3.29146 0.880641 0.0 
0.976482 1.01227 0.0 
1.50098 1.04463 0.0 
3.5 2 0.0 
1.72482 0.927062 0.0 
1.00345 1.00532 0.0 
1.01164 1.01873 0.0 
2.65708 0.915311 0.0 
2.90513 0.909334 0.0 
1.45759 0.934268 0.0 
0.413423 0 0.0 
1.4551 0.960623 0.0 
2.43223 0.935164 0.0 
0.976077 1.02265 0.0 
3.24287 0.912937 0.0 
2.90943 0.949625 0.0 
2.96863 0.986568 0.0 
1.71168 0.922567 0.0 
0.984539 1.04807 0.0 
3.5 0.932275 0.0 
1.004 1.01606 0.0 
1.00045 1.00072 0.0 
1.00837 1.01702 0.0 
0.97814 1.0193 0.0 
3.13031 0.991905 0.0 
0.99019 1.00554 0.0 
0.917582 1.20395 0.0 
0.737119 1.43461 0.0 
3.34087 0.968427 0.0 
[...]
<PointData>
  <DataArray type = "Float64" Name="Vitesse" NumberOfComponents="3" format="ascii">
1.01273 -0.00545137 0.0 
0.985844 -0.00239885 0.0 
0.996009 0.00207846 0.0 
0.868494 -0.00122065 0.0 
0.972632 -0.00265674 0.0 
0.995901 -0.00152303 0.0 
0.971546 0.2715 0.0 
0.992881 0.16633 0.0 
0.95294 0.12272 0.0 
0.992062 -0.00539128 0.0 
0.978889 -0.00243915 0.0 
0.705452 -0.00413611 0.0 
0.762074 -0.000488947 0.0 
0.825939 -0.00250166 0.0 
0.984277 -0.0018443 0.0 
0.982689 -0.00014137 0.0 
0.937586 0.15112 0.0 
0.970951 -0.000930545 0.0 
0.99095 -0.00790137 0.0 
0.959706 -0.000493919 0.0 
0.780965 -0.000218934 0.0 
0.973033 -0.00193893 0.0 
0.97312 -0.000282171 0.0 
0.972984 -0.00134636 0.0 
0.866708 0.61855 0.0 
0.725954 0.276916 0.0 
0.7871 0.592945 0.0 
0.79657 -0.00187483 0.0 
0.986876 -0.00297232 0.0 
0.647496 0.198023 0.0 
0.664608 0.183444 0.0 
0.969545 0.129766 0.0 
1.00083 -0.00143554 0.0 
0.971745 -0.00112291 0.0 
1.00691 0.281212 0.0 
1.01182 0.0577449 0.0 
0.94171 0.122284 0.0 
0.903622 0.0083271 0.0 
0.821704 0.350612 0.0 
0.808012 -0.00594052 0.0 
0 0 0.0 
0.959456 0.270445 0.0 
0 0 0.0 
0.960754 0.235863 0.0 
0.977773 -0.000713312 0.0 
0.97323 -0.00267534 0.0 
0.812347 3.23855e-05 0.0 
0.991614 -0.00198534 0.0 
0.863089 -0.000445072 0.0 
0.6858 -0.00142471 0.0 
1.00938 -0.00233254 0.0 
0.776918 -0.000450434 0.0 
0.998421 0.00256453 0.0 
0.942429 0.303186 0.0 
0.755802 -0.00107042 0.0 
0.859219 0.0010476 0.0 
0.920882 0.168579 0.0 
0.965037 0.60396 0.0 
1.02348 -0.0346051 0.0 
1.10527 0.536465 0.0 
0.873593 0.190403 0.0 
0.750255 -0.00252523 0.0 
0.907865 0.260802 0.0 
0.492974 0.127436 0.0 
0.787266 -0.00040976 0.0 
0.903903 0.227581 0.0 
0.969321 -0.000161722 0.0 
0.863315 0.274815 0.0 
1.0089 -0.00378924 0.0 
0.777279 0.484064 0.0 
1.00494 -0.00421124 0.0 
0 0 0.0 
0.756099 0.593747 0.0 
0.847352 0.277662 0.0 
0.814202 -0.000977237 0.0 
0.997352 0.0179756 0.0 
0.854511 0.34185 0.0 
0.792182 0.200263 0.0 
1.03492 0.0297761 0.0 
0.654762 0.161118 0.0 
0.293606 0.287989 0.0 
0.730148 0.172256 0.0 
0.972023 -0.000104463 0.0 
0.608931 0.0542179 0.0 
0.924696 -0.00669887 0.0 
0.411511 0.145893 0.0 
0.722687 0.189059 0.0 
0.782551 0.213013 0.0 
0.623978 0.192836 0.0 
0.990675 -0.00275728 0.0 
0.995782 0.0226813 0.0 
0.989479 0.593272 0.0 
0.886671 -0.00137929 0.0 
0 0 0.0 
1.01156 -0.00680944 0.0 
0.934536 0.193393 0.0 
0.773435 -0.00172872 0.0 
0.707211 0.590121 0.0 
0 0 0.0 
0.834541 0.000196322 0.0 
0.946318 -0.00044658 0.0 
0.862283 0.180458 0.0 
0.937094 -0.00157086 0.0 
0.449492 0.107107 0.0 
0.34791 0.236118 0.0 
0.945027 0.187139 0.0 
1.06279 0.0486643 0.0 
0.960305 -0.000981676 0.0 
0.714202 0.209602 0.0 
0.993214 -0.00228339 0.0 
0.361861 0.282853 0.0 
0.734 0.220831 0.0 
0.729875 0.497131 0.0 
0.87129 0.132134 0.0 
0.998707 -0.00659003 0.0 
0.995504 -0.00265023 0.0 
1.00909 -0.00669161 0.0 
1.01278 0.0646004 0.0 
1.03663 0.141945 0.0 
0.932755 -0.000517022 0.0 
0.693373 -0.00290759 0.0 
0.902177 0.193577 0.0 
0.715967 -0.00463588 0.0 
0.885177 0.00062404 0.0 
0.683387 0.180208 0.0 
0.957637 0.452741 0.0 
0.979083 0.42883 0.0 
0.688068 0.199312 0.0 
1.00396 -0.00672144 0.0 
1.00364 0.414105 0.0 
0 0 0.0 
1 0 0.0 
1.03682 0.152783 0.0 
0.713896 -0.00170314 0.0 
1.00437 -0.0108564 0.0 
0.703126 0.189126 0.0 
1.00593 0.0608397 0.0 
0.733238 -0.00278843 0.0 
0.993507 -0.00207175 0.0 
0.741901 0.189017 0.0 
0.582089 0.177161 0.0 
0.772602 0.19589 0.0 
0.501579 0.283899 0.0 
0.903061 0.435679 0.0 
1.02375 0.597649 0.0 
0.531889 0.489951 0.0 
0.847492 0.189737 0.0 
0.955222 0.361368 0.0 
0.765364 0.179426 0.0 
0.98742 -0.00255121 0.0 
0.99602 0.254499 0.0 
0.736273 0.600644 0.0 
0.847103 0.000239574 0.0 
0.958954 -0.000790921 0.0 
0.926126 0.000251835 0.0 
1.04394 0.590734 0.0 
0.750641 -0.00171496 0.0 
0.670102 0.207742 0.0 
1.00876 -0.0343168 0.0 
0.897071 -0.00663598 0.0 
0.944634 0.616466 0.0 
0.943326 -0.00171389 0.0 
0.978049 -0.00248324 0.0 
0.933928 0.164424 0.0 
0.993896 0.347906 0.0 
1.00059 -0.00255941 0.0 
1.15202 0.509482 0.0 
0.758037 0.189196 0.0 
0.734977 0.203827 0.0 
0.895445 -0.00174293 0.0 
1.00697 -0.000733906 0.0 
0.882903 -0.00129001 0.0 
0.533037 0.121969 0.0 
0.959897 0.437053 0.0 
0.801254 -0.00992892 0.0 
1.01026 -0.0186607 0.0 
0.819812 -0.00144097 0.0 
1.00492 -0.00238697 0.0 
0.762049 -0.00120989 0.0 
0.998589 -0.00975627 0.0 
0.887066 0.527915 0.0 
1.02882 0.492162 0.0 
0.991526 -0.00233417 0.0 
1.00984 -0.0010949 0.0 
0.736081 0.158829 0.0 
1.01047 -0.0039336 0.0 
0.609186 0.171287 0.0 
1.00696 -0.00362917 0.0 
0.77657 -0.000940032 0.0 
0.937594 0.61182 0.0 
0.566142 0.222429 0.0 
0.989775 -4.20002e-05 0.0 
1.01214 0.212554 0.0 
0.770429 -0.000399047 0.0 
0.775041 0.133668 0.0 
0.786788 0.47859 0.0 
0.946196 0.25703 0.0 
1.01399 0.33686 0.0 
0.895697 6.19264e-05 0.0 
0.802862 -0.00121208 0.0 
0.870545 0.155805 0.0 
1.04861 0.167714 0.0 
0.881527 0.618489 0.0 
0.933542 0.218417 0.0 
0.91345 -0.000234551 0.0 
1.05329 0.180938 0.0 
0.951231 0.479053 0.0 
0.894134 0.53267 0.0 
1.00709 -0.0039023 0.0 
0.712806 -0.00156484 0.0 
0.998769 -0.00304394 0.0 
0.788714 -0.000354295 0.0 
0.814803 0.372735 0.0 
1.00906 -0.00507943 0.0 
0.878229 0.270632 0.0 
0.502176 0.366424 0.0 
0.915761 0.571169 0.0 
0.320294 0.201279 0.0 
0.885681 0.184512 0.0 
0.840317 0.309782 0.0 
0.894055 0.362159 0.0 
0.914849 -0.000399585 0.0 
1.00925 0.00683713 0.0 
1.02732 0.299881 0.0 
0.991937 0.00956421 0.0 
0.947616 0.323395 0.0 
0.803299 -0.0080174 0.0 
0.990527 0.108508 0.0 
0.786953 0.137338 0.0 
0.918603 0.000128347 0.0 
0.999817 -0.00498609 0.0 
0.465671 0.172387 0.0 
1.01774 0.553597 0.0 
0.984595 -0.0028266 0.0 
1.00166 -0.000605066 0.0 
0.820574 0.187456 0.0 
0.741416 -0.00208596 0.0 
0.438794 0.222808 0.0 
0.881756 0.00108004 0.0 
0.873461 0.352982 0.0 
0.993195 -0.00144087 0.0 
1.00663 -0.00212627 0.0 
0.618231 0.146208 0.0 
0.691496 0.1647 0.0 
0.982645 0.10942 0.0 
0.458425 0.448033 0.0 
0.936744 0.50029 0.0 
0.988738 0.0144683 0.0 
0.99489 0.00954551 0.0 
0.538838 0.502518 0.0 
0.505834 0.400801 0.0 
0.757504 -0.00214599 0.0 
0.994977 0.00554952 0.0 
0.692251 0.540788 0.0 
1.03985 0.589169 0.0 
0.730789 0.591723 0.0 
1.00147 -0.00262542 0.0 
0.655823 0.323664 0.0 
0.637751 0.170342 0.0 
1.09849 0.564274 0.0 
0.640647 0.14412 0.0 
0.590582 0.147889 0.0 
0.638963 0.565309 0.0 
0.999224 0.0454748 0.0 
0.885784 0.555411 0.0 
0.800974 -0.00479147 0.0 
1.00468 0.039757 0.0 
0.341989 0.328242 0.0 
0.557367 0.152827 0.0 
0.982955 -0.00182979 0.0 
0.892101 0.137667 0.0 
0.590839 0.37474 0.0 
0.976551 -0.0051445 0.0 
1.07207 0.578577 0.0 
0.228146 0.2416 0.0 
0.508657 0.449767 0.0 
1.00257 -0.0015124 0.0 
1.0124 0.576896 0.0 
0.9972 0.00717269 0.0 
1.00618 0.0182921 0.0 
0.889161 9.96201e-05 0.0 
1.00178 -0.00102044 0.0 
0.977515 -0.00151081 0.0 
1.12981 0.529947 0.0 
1.0009 -0.00140931 0.0 
1.05547 0.108779 0.0 
0.993221 -0.000287032 0.0 
1.00317 -0.000538666 0.0 
1.01225 -0.000604123 0.0 
0.938939 -0.00648498 0.0 
1.00121 -0.00206559 0.0 
0.887708 -0.000173315 0.0 
0.675641 -0.0146239 0.0 
0 0 0.0 
0.862947 -0.0012434 0.0 
1.00346 -0.00610337 0.0 
0.733498 -0.00331815 0.0 
0.997606 0.0276642 0.0 
0.946905 0.13245 0.0 
0.967765 -0.00187283 0.0 
0.695039 0.422405 0.0 
0.461695 0.260455 0.0 
0.666961 0.242385 0.0 
0.901941 0.211302 0.0 
0.984568 0.606668 0.0 
0.934312 0.130968 0.0 
0.758643 0.205318 0.0 
1.01164 0.0432685 0.0 
1.01242 0.117324 0.0 
0.992047 0.0254275 0.0 
0.909307 0.000206889 0.0 
0.869952 0.172869 0.0 
0.848113 0.612655 0.0 
1.01094 -0.00508147 0.0 
0.999029 -4.03569e-06 0.0 
0.919133 0.219481 0.0 
0.642299 -0.018297 0.0 
0.820213 5.36873e-06 0.0 
0.873079 0.000247691 0.0 
0.929108 -0.00172197 0.0 
0.984417 -0.00107752 0.0 
0.922233 -0.00157165 0.0 
0.830129 -0.00197249 0.0 
0.526196 0.429712 0.0 
1.00338 0.00342879 0.0 
0.905475 0.60091 0.0 
0.812193 0.198099 0.0 
0.8861 0.00118611 0.0 
0.775494 0.168936 0.0 
0.914218 0.324252 0.0 
0.850351 0.14791 0.0 
0.785425 0.507382 0.0 
0.996186 0.0529083 0.0 
1.02629 0.470578 0.0 
0.97537 0.563586 0.0 
0.985077 -0.000377102 0.0 
0.797957 -0.00015997 0.0 
0 0 0.0 
0.921109 0.394164 0.0 
0.842117 -0.00096829 0.0 
1.1451 0.53253 0.0 
0.867682 0.605896 0.0 
0.822582 0.614429 0.0 
0.830534 0.5965 0.0 
0.775264 -0.00116352 0.0 
0.550138 0.0892067 0.0 
0.71061 0.436078 0.0 
0.799727 -0.00134043 0.0 
0.972809 0.473348 0.0 
0.84361 0.618366 0.0 
0.932654 -0.00878136 0.0 
1.00781 0.506393 0.0 
0.891239 0.343198 0.0 
0.437938 0.408027 0.0 
1.12294 0.505159 0.0 
1.01983 -0.00684935 0.0 
0.781894 0.244932 0.0 
0.985986 -0.00251605 0.0 
0.888162 0.584205 0.0 
0.789047 0.447806 0.0 
0.868489 0.258985 0.0 
1.0113 -0.0305178 0.0 
0.961521 -0.00245636 0.0 
0.970688 0.161835 0.0 
1.05466 0.566821 0.0 
1.02604 0.57945 0.0 
1.019 -0.0303449 0.0 
0.793531 -0.00148824 0.0 
0.999711 0.000375944 0.0 
0.272985 0.287863 0.0 
1.00278 -0.00307951 0.0 
0.375403 0.375259 0.0 
0.975523 -0.00169167 0.0 
0.9985 -0.00678761 0.0 
0.849752 -0.000722372 0.0 
0.598401 0.0992865 0.0 
0.478883 0.213523 0.0 
0.993659 -0.00713068 0.0 
0.881245 0.253498 0.0 
0.666644 -0.0025712 0.0 
0.983664 -0.00140206 0.0 
1.02461 0.44863 0.0 
0.789389 -0.00193917 0.0 
1.0159 -0.00322789 0.0 
1.01724 0.000309307 0.0 
1.01197 -0.00414734 0.0 
0.999927 -0.000142916 0.0 
0.629104 0.120106 0.0 
1.09664 0.563997 0.0 
0.878885 0.452084 0.0 
0.728046 0.36204 0.0 
0.981978 -0.0044879 0.0 
0.759833 0.429083 0.0 
1.00573 -0.0128955 0.0 
0.60511 0.121856 0.0 
0.961447 0.408099 0.0 
0.887413 0.296566 0.0 
0.916227 0.000149146 0.0 
0 0 0.0 
0.780048 0.186541 0.0 
0.989677 0.00270533 0.0 
0.994161 -0.00313545 0.0 
0.995974 -0.000433724 0.0 
0.826134 -0.00402905 0.0 
0.663266 0.429027 0.0 
0.910412 -0.000648928 0.0 
0.887275 0.235924 0.0 
0.831458 0.378983 0.0 
0.686871 -0.0018768 0.0 
0.919807 0.252526 0.0 
1.01215 -0.0174018 0.0 
0.992772 -0.00303821 0.0 
1.00662 -0.00107738 0.0 
1.00171 -0.000444931 0.0 
0.983479 -0.000489636 0.0 
0.994723 -0.00198041 0.0 
0.749155 0.217098 0.0 
0.502184 -0.0370421 0.0 
1.0054 -0.00273166 0.0 
1.01423 -0.000778435 0.0 
0.834175 0.138167 0.0 
1.05867 0.468253 0.0 
1.01423 0.00279713 0.0 
1.01728 -0.033909 0.0 
0.969099 -0.00362126 0.0 
0 0 0.0 
1.01014 -0.00243997 0.0 
1.01 -0.000512452 0.0 
0.860783 0.140394 0.0 
1.00496 -0.0275913 0.0 
0.997861 0 0.0 
1.001 -0.00333535 0.0 
0.199725 0.219019 0.0 
1.11094 0.546622 0.0 
0.992532 -0.000936274 0.0 
0.99606 -0.000629882 0.0 
1.00361 -0.00869745 0.0 
1.00021 0 0.0 
0.722064 -0.00984507 0.0 
0.942546 -0.000769713 0.0 
0.9052 0.164784 0.0 
0.984325 -0.000263247 0.0 
0.855713 0.000230112 0.0 
0.76191 -0.00151712 0.0 
1.00522 -0.00345574 0.0 
1.00354 0.171428 0.0 
0.927508 0.000286104 0.0 
0.876741 0.503386 0.0 
0 0 0.0 
0.993991 0.572282 0.0 
0.886874 0.168664 0.0 
0.783849 -0.00163624 0.0 
0.720625 0.152002 0.0 
1.02339 0.0398491 0.0 
1.00986 0.0132337 0.0 
0.791795 -0.000208453 0.0 
0.879835 0.479695 0.0 
0.806199 0.42696 0.0 
0.872887 0.299507 0.0 
0.517288 0.296522 0.0 
0.776746 -0.000564384 0.0 
0.675073 0.38347 0.0 
0.692595 -0.00445942 0.0 
0.990758 -0.0041569 0.0 
0.995821 -0.00168047 0.0 
0.868127 0.244227 0.0 
1.00259 -0.00146663 0.0 
1.00912 0 0.0 
0.835936 0.19919 0.0 
0.600774 0.347124 0.0 
0.993643 -0.0101736 0.0 
0.921527 -0.000574808 0.0 
0.915665 -0.00299367 0.0 
1.05713 0.0406819 0.0 
0.986171 -0.00843737 0.0 
1.00907 -0.00148441 0.0 
0.78629 -0.000697618 0.0 
1.00768 -0.00024816 0.0 
0.993402 0.0140656 0.0 
0.974165 7.61284e-05 0.0 
0 0 0.0 
1.00075 0.0334555 0.0 
0.697895 0.105738 0.0 
0.815158 0.460728 0.0 
0 0 0.0 
1.01131 0.000859928 0.0 
0.987743 -0.00162096 0.0 
1.06397 0.0706872 0.0 
1.02452 0.134372 0.0 
1.00095 -0.0121723 0.0 
1.00623 -0.00143634 0.0 
0.732439 -0.000767036 0.0 
1.01333 -0.000377532 0.0 
0.671127 0.163569 0.0 
0.852557 0.545985 0.0 
1.00547 -0.00135511 0.0 
1.00961 -0.00172605 0.0 
0.763493 -0.00183938 0.0 
0.973151 0.3555 0.0 
1.01189 -0.0016143 0.0 
0.573296 0.115517 0.0 
0.790308 -0.000174714 0.0 
0.78614 -0.000272826 0.0 
1.01058 -0.000722828 0.0 
1.00332 -0.000801132 0.0 
0.716642 0.410925 0.0 
1.00481 0.0525668 0.0 
1.01909 -0.0135393 0.0 
1.12331 0.548847 0.0 
0 0 0.0 
0.999665 -0.00316504 0.0 
0 0 0.0 
0.9925 0.0471969 0.0 
0.736255 0.430397 0.0 
0.824641 0.568086 0.0 
1.01023 0 0.0 
0.799923 -0.0069352 0.0 
0.896066 0.488557 0.0 
0 0 0.0 
1.04202 0.457905 0.0 
1.04455 0.292527 0.0 
1.00186 -0.00420996 0.0 
0.350018 0.176038 0.0 
0.593541 0.288745 0.0 
0.817959 0.000152212 0.0 
1.03301 0.519842 0.0 
0.813805 -0.00464609 0.0 
0.908982 0.545883 0.0 
1.00718 -0.000581071 0.0 
0.829975 0.212895 0.0 
0.85957 0.578301 0.0 
0.882036 0.00028446 0.0 
0.807198 -0.000168193 0.0 
0.971544 0.545834 0.0 
0.83565 0.153452 0.0 
0.993745 -0.000287005 0.0 
1.01961 0.067247 0.0 
1.00771 -0.00353989 0.0 
1.0639 0.560221 0.0 
0 0 0.0 
0.833299 -0.00313855 0.0 
0.540143 -0.00889011 0.0 
1.01198 -0.0119777 0.0 
0.831123 0.57697 0.0 
0.380952 -0.00659304 0.0 
0.943794 -0.00457892 0.0 
0.699192 -0.00365406 0.0 
0.729587 0.255535 0.0 
0.782753 -0.00393469 0.0 
0.819337 -0.00532187 0.0 
1.03832 0.571973 0.0 
0.878573 0.218069 0.0 
0.950201 0.598608 0.0 
0.656565 0.0887891 0.0 
1.00847 -0.00528184 0.0 
0.446353 0.0450847 0.0 
0.859597 0.566541 0.0 
0.829108 0.167567 0.0 
1.01059 0.18119 0.0 
0.896827 -0.000572448 0.0 
0.834972 0.291117 0.0 
1.03799 0.108945 0.0 
0.916083 0.606496 0.0 
0 0 0.0 
1.05433 0.495194 0.0 
0.628392 0.0519673 0.0 
0.884398 0.202099 0.0 
0.601797 0.191964 0.0 
0 0 0.0 
0.965029 -0.0012689 0.0 
0.566442 0.0150296 0.0 
0.913759 -0.00551623 0.0 
0 0 0.0 
0.955872 0.342829 0.0 
0.928805 -0.00180798 0.0 
0.597745 0.0197267 0.0 
0.957371 -0.00944528 0.0 
1.00616 -0.0082951 0.0 
0.828949 0.265158 0.0 
1.02354 -0.0377748 0.0 
0.420285 0.306095 0.0 
1.0531 0.0720393 0.0 
0.740201 0.392988 0.0 
0.852444 -0.00240419 0.0 
1.05156 0.0846872 0.0 
1.00386 0.604759 0.0 
0.531312 0.0353428 0.0 
0.906123 0.129058 0.0 
1.01067 -0.0052641 0.0 
1.00664 0.012932 0.0 
0 0 0.0 
1.00962 0.482413 0.0 
1.02732 -0.0370253 0.0 
1.05892 0.520159 0.0 
0 0 0.0 
0.773518 -0.000770312 0.0 
0.804001 3.47387e-06 0.0 
1.05841 0.0814234 0.0 
0.284886 0.136012 0.0 
0.974916 -0.0103829 0.0 
0.514288 0.362845 0.0 
0.879026 0.0052486 0.0 
1.0171 0 0.0 
0.990502 0.146496 0.0 
1.04241 0.478373 0.0 
0.348643 0.251003 0.0 
0.63549 -0.0162395 0.0 
0.903983 -0.000838049 0.0 
0.852563 -0.000955975 0.0 
0.777994 0.149425 0.0 
0.758119 0.483296 0.0 
0.369824 0.0904252 0.0 
0.998578 -0.0136589 0.0 
0.978871 0.388567 0.0 
1.04999 0.04814 0.0 
0.987905 -0.0031886 0.0 
0.963007 5.69374e-05 0.0 
1.08783 0.554417 0.0 
0.9677 0.300595 0.0 
0.942974 0.000101601 0.0 
1.00714 -0.00188417 0.0 
1.04365 0.0964079 0.0 
0.769173 0.239532 0.0 
0.986886 0.404701 0.0 
0.888299 0.282805 0.0 
0.933081 0.259599 0.0 
0.912679 -0.00304269 0.0 
0.971286 0.200553 0.0 
0.424642 0.268589 0.0 
0 0 0.0 
0.958713 0.168113 0.0 
0.944959 0.200399 0.0 
0.72047 0.547469 0.0 
1.04163 0.0819685 0.0 
1.12121 0.549469 0.0 
1.01494 -0.0111704 0.0 
0.854306 0.516938 0.0 
0.275694 0.0310773 0.0 
0.938434 0.284939 0.0 
0.699618 0.587061 0.0 
1.01659 -0.00939353 0.0 
0.635187 0.0748136 0.0 
0.876943 0.144311 0.0 
0.920641 0.523434 0.0 
0.933923 7.74883e-05 0.0 
0.818941 0.000159328 0.0 
0.846581 -0.00165588 0.0 
0.506352 0.0733793 0.0 
0.433284 0.392131 0.0 
0.691694 0.217794 0.0 
0.746185 0.128128 0.0 
0 0 0.0 
1.00783 -0.00358989 0.0 
0.960269 0.542385 0.0 
0.942233 0.596768 0.0 
1.00859 -0.00125219 0.0 
0.676329 -0.00490223 0.0 
0.988173 -0.00819257 0.0 
0.821061 0.613264 0.0 
1.01192 -0.00143918 0.0 
1.01209 0.01053 0.0 
0.783172 -0.000390407 0.0 
0.431894 0.394816 0.0 
0.212045 0.20504 0.0 
1.00958 -0.0034014 0.0 
0.906697 0.000696068 0.0 
0.790759 0.167408 0.0 
0.448094 -0.0760974 0.0 
0.930651 0.180049 0.0 
0.927651 0.141426 0.0 
1.04103 0.0384557 0.0 
0.805164 0.213868 0.0 
0.867002 -0.000211555 0.0 
1.04107 0.0570034 0.0 
0.95426 -0.00130191 0.0 
0.736769 -0.00168226 0.0 
0.999282 0.00986875 0.0 
0.661688 0.143219 0.0 
0.897693 0.280662 0.0 
0.921059 0.193202 0.0 
0.253494 0.26715 0.0 
0.994401 -0.0143376 0.0 
0.963322 0.254067 0.0 
0.726286 -0.000732931 0.0 
1.01001 -0.00236351 0.0 
0.310459 0.260038 0.0 
1.00373 0.12172 0.0 
0.970121 0.187462 0.0 
0.768743 0.609182 0.0 
0 0 0.0 
0.905549 0.497666 0.0 
0.253376 0.222661 0.0 
0 0 0.0 
0.648021 0.256803 0.0 
1.01128 0.460779 0.0 
0.465299 0.457423 0.0 
0.912815 0.611385 0.0 
0.785395 -0.000160472 0.0 
1.00761 0.00938366 0.0 
0 0 0.0 
0.818212 0.288306 0.0 
1.00711 0.0331877 0.0 
0.992685 -0.00150236 0.0 
0.945135 0.213499 0.0 
1.05375 0.574756 0.0 
1.03843 0.0472428 0.0 
0.965254 0.610605 0.0 
0.932916 0.335591 0.0 
0.910986 -0.00793638 0.0 
0.732667 -0.000966854 0.0 
1.05917 0.0943793 0.0 
1 0 0.0 
0.8771 -0.000769152 0.0 
0.377696 0.382691 0.0 
0.753102 0.35876 0.0 
0.949499 0.569296 0.0 
1.03188 0.0389779 0.0 
0.967826 0.141285 0.0 
0.47568 0.411124 0.0 
1.07938 0.506483 0.0 
0.891005 0.218923 0.0 
0 0 0.0 
0.751123 -0.00304479 0.0 
0 0 0.0 
0.921554 0.153431 0.0 
0.651286 0.55006 0.0 
0.751161 0.589756 0.0 
1.00874 -0.00123016 0.0 
0.711234 0.245434 0.0 
0.552968 0.0555877 0.0 
0.853742 0.491889 0.0 
0.983822 0.553902 0.0 
0.702298 -0.00324559 0.0 
0.970836 0.213515 0.0 
1.02753 0.121182 0.0 
0.9668 -0.0023682 0.0 
0 0 0.0 
0 0 0.0 
0.780611 -0.000412132 0.0 
0.5819 0.0467815 0.0 
0.948705 -0.000164173 0.0 
0.992304 0.0192916 0.0 
0.286763 0.263947 0.0 
1.00956 -0.00370783 0.0 
0 0 0.0 
0.276606 0.220579 0.0 
1.0123 0 0.0 
0.653783 0.515881 0.0 
0.734538 0.318452 0.0 
0.885729 0.559866 0.0 
0 0 0.0 
0.803562 -0.00175908 0.0 
0 0 0.0 
0.753942 0.538578 0.0 
0.908724 0.46487 0.0 
1.04267 0.0676155 0.0 
1.05998 0.0584393 0.0 
0.654991 0.536759 0.0 
1.00342 -0.00166905 0.0 
0.765484 0.377383 0.0 
0.994036 -0.0128068 0.0 
1.04974 0.0603773 0.0 
0.862403 0.226089 0.0 
0.790836 -6.8968e-05 0.0 
0.472892 0.446064 0.0 
0.88605 0.310435 0.0 
0.904762 -0.00487805 0.0 
0.80319 0.16489 0.0 
0.554157 0.51801 0.0 
0.920382 -0.00478199 0.0 
1.05041 0.0361789 0.0 
0.960512 0.289076 0.0 
0.800468 0.319239 0.0 
0.990478 0.00643174 0.0 
0.63399 0.413487 0.0 
0.817036 0.151604 0.0 
1.00064 0.114073 0.0 
0.803513 -1.26016e-05 0.0 
0.950086 0.521425 0.0 
1.0063 0 0.0 
0.581899 0.515493 0.0 
0.962512 0.119463 0.0 
0.774115 0.348684 0.0 
0.789293 0.282381 0.0 
0.747988 -0.000548912 0.0 
0.805706 0.181104 0.0 
0.984175 -0.0102243 0.0 
0.191673 0.208306 0.0 
1.07835 0.534864 0.0 
0.914992 -0.00124873 0.0 
0.917732 0.306431 0.0 
0.727951 -0.011718 0.0 
0 0 0.0 
0.85422 0.260783 0.0 
0.689695 0.577098 0.0 
0.815215 0.356245 0.0 
0 0 0.0 
0.914818 0.204915 0.0 
0.644658 0.477086 0.0 
0.612147 0.517154 0.0 
0.778081 -0.00214654 0.0 
0.95556 -0.00199942 0.0 
0.77406 -0.0033504 0.0 
0.911657 0.34635 0.0 
0.688504 0.268807 0.0 
0.750862 0.231212 0.0 
0.828062 0.245739 0.0 
0.847299 0.243562 0.0 
1.00864 -0.00142429 0.0 
0.990303 -0.00887859 0.0 
0.908661 -0.00157241 0.0 
0.812596 -0.000224704 0.0 
0.878687 -0.00177955 0.0 
1.00175 0 0.0 
1.01088 -0.0027595 0.0 
0.836333 -0.000143927 0.0 
0.929009 -0.000457685 0.0 
0.839795 -0.000758777 0.0 
1.0199 0.0345526 0.0 
0.854634 -0.0068741 0.0 
0.868853 -0.00104211 0.0 
0.836878 -0.00601118 0.0 
0.929023 0.584809 0.0 
1.00684 -0.00318915 0.0 
0.995131 -0.00826828 0.0 
0.814322 0.253365 0.0 
0.639944 0.539429 0.0 
0.99362 0.0327833 0.0 
0.579404 0.493619 0.0 
0.710534 0.228443 0.0 
0.92583 -0.00395086 0.0 
0.695621 -0.00206534 0.0 
0.865573 0.000368193 0.0 
0.503414 0.467186 0.0 
0.680474 0.54307 0.0 
0.638007 0.441416 0.0 
0 0 0.0 
0.835198 0.229097 0.0 
0.640443 0.38273 0.0 
0.979967 0.520507 0.0 
0.673674 -0.00331148 0.0 
0.850938 0.213612 0.0 
0.966573 0.373915 0.0 
0.573929 0.510736 0.0 
1.00702 -0.00326302 0.0 
0.563061 0.523618 0.0 
1.01834 -0.0239458 0.0 
0.982004 0.159974 0.0 
1.01441 0.245287 0.0 
0.851745 -0.00365131 0.0 
0.849468 0.227844 0.0 
0.606448 0.407009 0.0 
1.04472 0.159618 0.0 
0.953554 -0.00845519 0.0 
0.671843 -0.0018561 0.0 
1.10716 0.535165 0.0 
1.00908 -0.00121488 0.0 