<VTKFile type="UnstructuredGrid" version="0.1" byte_order="LittleEndian">
  <UnstructuredGrid>
    <Piece NumberOfPoints="16524" NumberOfCells="32547">
      <Points>
        <DataArray type = "Float64" NumberOfComponents="3" format="ascii">
1.26865 0.981159 0.0 
1.26298 0.976243 0.0 
1.28725 0.976002 0.0 
1.31946 0.960577 0.0 
1.26518 0.982342 0.0 
1.32221 0.962997 0.0 
1.26919 0.975689 0.0 
1.24943 0.976059 0.0 
1.25959 0.975485 0.0 
1.26474 0.980473 0.0 
1.28802 0.968614 0.0 
1.32248 0.966463 0.0 
1.27856 0.98347 0.0 
1.27001 0.981973 0.0 
1.26809 0.976606 0.0 
1.26032 0.967082 0.0 
1.26365 0.975214 0.0 
1.28216 0.976343 0.0 
1.28307 0.966201 0.0 
1.32699 0.970739 0.0 
1.28725 0.974049 0.0 
1.21972 0.965733 0.0 
1.2501 0.960648 0.0 
1.22367 0.965967 0.0 
1.26699 0.970536 0.0 
1.25993 0.97956 0.0 
1.28593 0.960435 0.0 
1.26727 0.967713 0.0 
1.37527 0.951131 0.0 
1.27619 0.967743 0.0 
1.27966 0.968552 0.0 
1.23726 0.957258 0.0 
1.25743 0.967142 0.0 
1.28937 0.975102 0.0 
1.30088 0.960664 0.0 
1.23399 0.958676 0.0 
1.23264 0.966952 0.0 
1.26663 0.96832 0.0 
1.31571 0.966317 0.0 
1.23411 0.963296 0.0 
1.26433 0.972375 0.0 
1.27615 0.968851 0.0 
1.24968 0.979345 0.0 
1.23915 0.961066 0.0 
1.31124 0.967262 0.0 
1.21112 0.957672 0.0 
1.30963 0.982176 0.0 
1.26122 0.970928 0.0 
1.28295 0.973846 0.0 
1.243 0.965109 0.0 
1.31968 0.965364 0.0 
1.28169 0.95935 0.0 
1.25873 0.980398 0.0 
1.24048 0.978072 0.0 
1.26821 0.962536 0.0 
1.24647 0.97853 0.0 
1.36418 0.956884 0.0 
1.28339 0.962931 0.0 
1.24834 0.948101 0.0 
1.3006 0.969743 0.0 
1.25287 0.978798 0.0 
1.32071 0.967963 0.0 
1.23619 0.959494 0.0 
1.31655 0.959609 0.0 
1.26288 0.977831 0.0 
1.26842 0.974433 0.0 
1.25556 0.957809 0.0 
1.24535 0.96999 0.0 
1.30936 0.968371 0.0 
1.30158 0.972747 0.0 
1.25755 0.978076 0.0 
1.26421 0.978637 0.0 
1.31044 0.971581 0.0 
1.26999 0.980154 0.0 
1.25378 0.977918 0.0 
1.33076 0.971472 0.0 
1.26766 0.958978 0.0 
1.28233 0.96544 0.0 
1.24119 0.967051 0.0 
1.3067 0.979741 0.0 
1.21038 0.961881 0.0 
1.28955 0.966265 0.0 
1.28183 0.964461 0.0 
1.25375 0.975436 0.0 
1.27762 0.963086 0.0 
1.22607 0.96237 0.0 
1.22507 0.961069 0.0 
1.28181 0.977355 0.0 
1.32299 0.973088 0.0 
1.25081 0.966887 0.0 
1.36404 0.972481 0.0 
1.26508 0.971681 0.0 
1.35363 0.976283 0.0 
1.3479 0.97262 0.0 
1.40416 0.95436 0.0 
1.33967 0.979007 0.0 
1.23207 0.976463 0.0 
1.39095 0.95543 0.0 
1.35452 0.97757 0.0 
1.36887 0.957821 0.0 
1.35792 0.971453 0.0 
1.2922 0.971266 0.0 
1.24832 0.959435 0.0 
1.36941 0.951884 0.0 
1.20908 0.962803 0.0 
1.34697 0.978091 0.0 
1.22708 0.966113 0.0 
1.34345 0.974455 0.0 
1.27254 0.979661 0.0 
1.24602 0.971717 0.0 
1.31309 0.979899 0.0 
1.30611 0.963881 0.0 
1.26681 0.969731 0.0 
1.39645 0.956908 0.0 
1.32745 0.978943 0.0 
1.32387 0.980051 0.0 
1.33321 0.975663 0.0 
1.29218 0.969337 0.0 
1.38325 0.95494 0.0 
1.38375 0.960163 0.0 
1.39078 0.956508 0.0 
1.27222 0.968952 0.0 
1.33907 0.976301 0.0 
1.34386 0.978878 0.0 
1.34187 0.98007 0.0 
1.40002 0.954961 0.0 
1.32958 0.98205 0.0 
1.35032 0.978374 0.0 
1.27819 0.966628 0.0 
1.25184 0.97616 0.0 
1.35466 0.967519 0.0 
1.27632 0.973519 0.0 
1.34018 0.972502 0.0 
1.34451 0.970992 0.0 
1.38479 0.95307 0.0 
1.28311 0.968465 0.0 
1.27168 0.978804 0.0 
1.32839 0.980793 0.0 
1.38057 0.970024 0.0 
1.32442 0.960886 0.0 
1.37736 0.969105 0.0 
1.38148 0.959004 0.0 
1.31443 0.965029 0.0 
1.35401 0.978641 0.0 
1.30489 0.958921 0.0 
1.3763 0.955141 0.0 
1.35695 0.966377 0.0 
1.38075 0.956142 0.0 
1.24949 0.970482 0.0 
1.3689 0.964854 0.0 
1.36876 0.971449 0.0 
1.3089 0.976164 0.0 
1.35985 0.968383 0.0 
1.36287 0.969418 0.0 
1.37791 0.961051 0.0 
1.36937 0.973832 0.0 
1.25615 0.973815 0.0 
1.32183 0.977711 0.0 
1.23069 0.961263 0.0 
1.37936 0.967072 0.0 
1.3673 0.968314 0.0 
1.27129 0.974042 0.0 
1.38535 0.957092 0.0 
1.36799 0.96997 0.0 
1.35067 0.968444 0.0 
1.38203 0.966087 0.0 
1.37402 0.966911 0.0 
1.31654 0.977612 0.0 
1.34715 0.973688 0.0 
1.22235 0.961763 0.0 
1.35424 0.974377 0.0 
1.22865 0.958198 0.0 
1.34473 0.957664 0.0 
1.33557 0.977322 0.0 
1.34645 0.970188 0.0 
1.40891 0.951354 0.0 
1.28355 0.969359 0.0 
1.35132 0.969616 0.0 
1.39922 0.96 0.0 
1.36607 0.965896 0.0 
1.42111 0.954296 0.0 
1.38007 0.967971 0.0 
1.26124 0.958459 0.0 
1.26929 0.958167 0.0 
1.36927 0.967004 0.0 
1.25201 0.970645 0.0 
1.27718 0.962146 0.0 
1.23251 0.974301 0.0 
1.38618 0.958222 0.0 
1.37011 0.972782 0.0 
1.37423 0.967932 0.0 
1.40143 0.952193 0.0 
1.32916 0.974689 0.0 
1.27802 0.976897 0.0 
1.38313 0.968648 0.0 
1.33165 0.97365 0.0 
1.3785 0.953967 0.0 
1.24537 0.958808 0.0 
1.22869 0.960555 0.0 
1.24016 0.971582 0.0 
1.36106 0.96585 0.0 
1.37379 0.96187 0.0 
1.23505 0.973758 0.0 
1.3622 0.96704 0.0 
1.22566 0.974421 0.0 
1.35921 0.977834 0.0 
1.33877 0.975174 0.0 
1.28712 0.977101 0.0 
1.35467 0.970548 0.0 
1.29974 0.958218 0.0 
1.30489 0.969994 0.0 
1.32832 0.976412 0.0 
1.2966 0.970407 0.0 
1.37221 0.969142 0.0 
1.33752 0.97335 0.0 
1.27914 0.978398 0.0 
1.34263 0.971935 0.0 
1.3232 0.981984 0.0 
1.35479 0.968635 0.0 
1.33874 0.974206 0.0 
1.32215 0.976705 0.0 
1.30059 0.970519 0.0 
1.26472 0.977123 0.0 
1.26984 0.961635 0.0 
1.26251 0.969958 0.0 
1.35216 0.971642 0.0 
1.32189 0.981032 0.0 
1.37266 0.964024 0.0 
1.41378 0.95871 0.0 
1.34191 0.968332 0.0 
1.30599 0.966428 0.0 
1.2897 0.962126 0.0 
1.32077 0.964197 0.0 
1.41262 0.960257 0.0 
1.22244 0.963414 0.0 
1.40691 0.959447 0.0 
1.27585 0.979119 0.0 
1.23887 0.964293 0.0 
1.29244 0.970232 0.0 
1.40933 0.961822 0.0 
1.2325 0.960068 0.0 
1.33503 0.979821 0.0 
1.25655 0.965631 0.0 
1.27621 0.98003 0.0 
1.27393 0.978005 0.0 
1.26252 0.972714 0.0 
1.25215 0.956985 0.0 
1.39121 0.964284 0.0 
1.25678 0.979389 0.0 
1.30064 0.962238 0.0 
1.22933 0.957309 0.0 
1.24907 0.980298 0.0 
1.30288 0.959859 0.0 
1.37176 0.965931 0.0 
1.2438 0.96065 0.0 
1.28016 0.966068 0.0 
1.39215 0.963026 0.0 
1.25524 0.96059 0.0 
1.39783 0.964039 0.0 
1.23042 0.959388 0.0 
1.38627 0.965319 0.0 
1.38579 0.964066 0.0 
1.28888 0.96997 0.0 
1.42156 0.956813 0.0 
1.22447 0.957916 0.0 
1.37345 0.962967 0.0 
1.39699 0.958221 0.0 
1.32497 0.964816 0.0 
1.25936 0.959291 0.0 
1.38026 0.962251 0.0 
1.41036 0.956573 0.0 
1.38525 0.966919 0.0 
1.28601 0.954461 0.0 
1.23008 0.963179 0.0 
1.21928 0.962177 0.0 
1.32716 0.97731 0.0 
1.40085 0.962403 0.0 
1.26253 0.968769 0.0 
1.33516 0.97844 0.0 
1.38511 0.962998 0.0 
1.22295 0.965132 0.0 
1.30336 0.965029 0.0 
1.37907 0.963745 0.0 
1.39124 0.96064 0.0 
1.23884 0.967551 0.0 
1.24135 0.974262 0.0 
1.38091 0.965023 0.0 
1.39598 0.961481 0.0 
1.39205 0.957733 0.0 
1.35785 0.96152 0.0 
1.28856 0.970803 0.0 
1.38428 0.961198 0.0 
1.37508 0.964928 0.0 
1.25949 0.983957 0.0 
1.34243 0.973477 0.0 
1.26475 0.969645 0.0 
1.38818 0.961929 0.0 
1.31038 0.96625 0.0 
1.32598 0.975663 0.0 
1.23284 0.961899 0.0 
1.25335 0.959845 0.0 
1.40348 0.957352 0.0 
1.40339 0.958662 0.0 
1.4042 0.960893 0.0 
1.21829 0.971342 0.0 
1.23632 0.95573 0.0 
1.27687 0.965949 0.0 
1.3079 0.970837 0.0 
1.23477 0.962582 0.0 
1.25328 0.985271 0.0 
1.33484 0.974456 0.0 
1.20868 0.957002 0.0 
1.37719 0.965992 0.0 
1.21363 0.958378 0.0 
1.32476 0.954195 0.0 
1.27275 0.971155 0.0 
1.34478 0.975636 0.0 
1.21832 0.960792 0.0 
1.39181 0.959178 0.0 
1.29536 0.962418 0.0 
1.30374 0.965981 0.0 
1.29287 0.982134 0.0 
1.24346 0.966652 0.0 
1.21812 0.958932 0.0 
1.28933 0.963007 0.0 
1.23872 0.956436 0.0 
1.38977 0.954036 0.0 
1.39582 0.95317 0.0 
1.24954 0.97134 0.0 
1.35721 0.969425 0.0 
1.41274 0.957737 0.0 
1.33308 0.976718 0.0 
1.30662 0.967234 0.0 
1.40115 0.956009 0.0 
1.27606 0.958794 0.0 
1.2149 0.962328 0.0 
1.26676 0.956246 0.0 
1.31954 0.975665 0.0 
1.38617 0.95209 0.0 
1.2396 0.965789 0.0 
1.26259 0.971929 0.0 
1.32308 0.974768 0.0 
1.24272 0.959664 0.0 
1.35188 0.975461 0.0 
1.34715 0.967577 0.0 
1.27289 0.970453 0.0 
1.26492 0.960293 0.0 
1.22747 0.959893 0.0 
1.34098 0.970255 0.0 
1.37254 0.956729 0.0 
1.23412 0.95686 0.0 
1.3756 0.959973 0.0 
1.22952 0.96506 0.0 
1.34548 0.969083 0.0 
1.37022 0.955897 0.0 
1.24765 0.961419 0.0 
1.35641 0.965175 0.0 
1.37318 0.958807 0.0 
1.30646 0.981169 0.0 
1.23993 0.974662 0.0 
1.32825 0.972997 0.0 
1.30506 0.968973 0.0 
1.2761 0.961474 0.0 
1.28632 0.965857 0.0 
1.36806 0.962317 0.0 
1.24757 0.975293 0.0 
1.3375 0.971309 0.0 
1.24983 0.974799 0.0 
1.31542 0.976553 0.0 
1.36764 0.959812 0.0 
1.22518 0.966697 0.0 
1.25872 0.968394 0.0 
1.24361 0.977608 0.0 
1.31402 0.975631 0.0 
1.31303 0.981129 0.0 
1.31661 0.981814 0.0 
1.23835 0.986138 0.0 
1.36276 0.971085 0.0 
1.24877 0.985835 0.0 
1.26177 0.969413 0.0 
1.21896 0.954129 0.0 
1.22215 0.969628 0.0 
1.33634 0.970233 0.0 
1.31497 0.954882 0.0 
1.2573 0.974385 0.0 
1.3631 0.9647 0.0 
1.27013 0.960124 0.0 
1.23808 0.960288 0.0 
1.32608 0.971993 0.0 
1.36687 0.963595 0.0 
1.27072 0.971077 0.0 
1.28525 0.968832 0.0 
1.36961 0.961006 0.0 
1.24781 0.95801 0.0 
1.22135 0.970589 0.0 
1.32075 0.979415 0.0 
1.32106 0.973985 0.0 
1.2728 0.971707 0.0 
1.31635 0.97464 0.0 
1.21498 0.959458 0.0 
1.25513 0.973145 0.0 
1.3453 0.966547 0.0 
1.35101 0.966174 0.0 
1.2253 0.970192 0.0 
1.31173 0.978686 0.0 
1.23158 0.975816 0.0 
1.37527 0.952781 0.0 
1.20952 0.959665 0.0 
1.2839 0.964818 0.0 
1.37415 0.970387 0.0 
1.26363 0.971045 0.0 
1.21675 0.961524 0.0 
1.30821 0.951878 0.0 
1.27486 0.972103 0.0 
1.27813 0.967291 0.0 
1.28093 0.982574 0.0 
1.24623 0.970544 0.0 
1.23977 0.958928 0.0 
1.24306 0.980468 0.0 
1.2432 0.976274 0.0 
1.35292 0.973384 0.0 
1.29059 0.964512 0.0 
1.31119 0.962886 0.0 
1.35467 0.951686 0.0 
1.29554 0.983277 0.0 
1.26252 0.954589 0.0 
1.22822 0.958837 0.0 
1.29573 0.966406 0.0 
1.20985 0.963584 0.0 
1.34307 0.977854 0.0 
1.29629 0.980808 0.0 
1.34994 0.971012 0.0 
1.27525 0.96061 0.0 
1.30631 0.960677 0.0 
1.27794 0.969794 0.0 
1.25326 0.961324 0.0 
1.4086 0.953309 0.0 
1.27357 0.969717 0.0 
1.2985 0.976079 0.0 
1.33424 0.965924 0.0 
1.3474 0.956433 0.0 
1.35155 0.96527 0.0 
1.28939 0.978133 0.0 
1.27298 0.975163 0.0 
1.27087 0.969378 0.0 
1.32849 0.96663 0.0 
1.26134 0.975397 0.0 
[...]
<PointData>
  <DataArray type = "Float64" Name="Vitesse" NumberOfComponents="3" format="ascii">
0.194854 0.11591 0.0 
0.290383 0.112567 0.0 
0.226644 0.0526114 0.0 
0.707122 -0.0124381 0.0 
0.191827 0.127284 0.0 
0.606191 -0.0139348 0.0 
0.274388 0.0989004 0.0 
0.37878 0.127287 0.0 
0.329907 0.112999 0.0 
0.208661 0.125072 0.0 
0.415993 0.0355248 0.0 
0.469748 -0.0177018 0.0 
0.19312 0.0796251 0.0 
0.189708 0.112063 0.0 
0.25831 0.105104 0.0 
0.63177 0.056797 0.0 
0.313577 0.106009 0.0 
0.225326 0.0683698 0.0 
0.54237 0.0310644 0.0 
0.365982 -0.0336166 0.0 
0.256355 0.0512595 0.0 
0.868624 0.104321 0.0 
0.871733 0.0414861 0.0 
0.846387 0.100837 0.0 
0.450434 0.072652 0.0 
0.236238 0.133095 0.0 
0.773107 0.00637258 0.0 
0.563961 0.0542283 0.0 
0.963907 -0.00320442 0.0 
0.509628 0.0459476 0.0 
0.456067 0.0465683 0.0 
0.954966 0.0523677 0.0 
0.646528 0.0599336 0.0 
0.237932 0.0460069 0.0 
0.727496 -0.00184759 0.0 
0.946795 0.060696 0.0 
0.780681 0.0924332 0.0 
0.542515 0.0586545 0.0 
0.467949 -0.00934359 0.0 
0.867729 0.0750013 0.0 
0.399621 0.0877281 0.0 
0.462237 0.052209 0.0 
0.289255 0.147075 0.0 
0.895613 0.0596042 0.0 
0.430752 -0.00346665 0.0 
1.0277 0.0782426 0.0 
0.255014 -0.0299756 0.0 
0.474262 0.0811347 0.0 
0.268186 0.0619929 0.0 
0.786925 0.0681809 0.0 
0.50727 -0.0132847 0.0 
0.819816 0.00619505 0.0 
0.227128 0.138791 0.0 
0.376432 0.147333 0.0 
0.760908 0.0267851 0.0 
0.327767 0.145432 0.0 
0.859038 -0.0104955 0.0 
0.685307 0.0163009 0.0 
0.996587 0.0251717 0.0 
0.349759 0.0153464 0.0 
0.284318 0.140652 0.0 
0.417352 -0.0181271 0.0 
0.929936 0.0596508 0.0 
0.747393 -0.0114549 0.0 
0.255214 0.120411 0.0 
0.30987 0.0943575 0.0 
0.910617 0.0274626 0.0 
0.61495 0.090607 0.0 
0.391079 -0.000822324 0.0 
0.278214 0.0129066 0.0 
0.275735 0.130444 0.0 
0.235677 0.120738 0.0 
0.310095 -0.00667211 0.0 
0.201432 0.110337 0.0 
0.300337 0.134579 0.0 
0.365263 -0.040612 0.0 
0.862902 0.0163736 0.0 
0.580113 0.0281998 0.0 
0.737177 0.079895 0.0 
0.241245 -0.0155766 0.0 
0.983349 0.0938181 0.0 
0.511443 0.0245825 0.0 
0.62572 0.0239335 0.0 
0.368798 0.119196 0.0 
0.702155 0.0213011 0.0 
0.915375 0.083486 0.0 
0.940609 0.0802993 0.0 
0.214292 0.0703458 0.0 
0.318208 -0.0348385 0.0 
0.693086 0.0657762 0.0 
0.470931 -0.0536763 0.0 
0.419857 0.0822835 0.0 
0.391159 -0.0697334 0.0 
0.409757 -0.0561295 0.0 
0.931045 0.0059591 0.0 
0.33237 -0.0737033 0.0 
0.475262 0.14377 0.0 
0.909445 0.00096951 0.0 
0.384316 -0.0739305 0.0 
0.841819 -0.0097989 0.0 
0.464246 -0.0519364 0.0 
0.314198 0.0348077 0.0 
0.899192 0.0409544 0.0 
0.953225 -0.00552694 0.0 
0.97317 0.0972182 0.0 
0.357779 -0.0746507 0.0 
0.82818 0.0969337 0.0 
0.372705 -0.0611837 0.0 
0.201932 0.102094 0.0 
0.548938 0.100864 0.0 
0.257567 -0.0336231 0.0 
0.576073 0.000591965 0.0 
0.483552 0.0675921 0.0 
0.887996 0.00210251 0.0 
0.297692 -0.0597931 0.0 
0.28706 -0.0571828 0.0 
0.328027 -0.0574177 0.0 
0.375495 0.0310471 0.0 
0.913183 -0.00166783 0.0 
0.806824 -0.00688051 0.0 
0.891152 0.000225948 0.0 
0.481146 0.0570133 0.0 
0.342823 -0.0649077 0.0 
0.34498 -0.0758377 0.0 
0.33579 -0.0780741 0.0 
0.920995 0.00439488 0.0 
0.303822 -0.0711967 0.0 
0.366471 -0.0761465 0.0 
0.54778 0.0378936 0.0 
0.359795 0.125793 0.0 
0.532405 -0.0378613 0.0 
0.297496 0.0756385 0.0 
0.383246 -0.0524899 0.0 
0.421752 -0.0492244 0.0 
0.94232 -0.000269276 0.0 
0.442827 0.041806 0.0 
0.211936 0.103226 0.0 
0.299132 -0.0662681 0.0 
0.570177 -0.0346935 0.0 
0.694195 -0.0145591 0.0 
0.577504 -0.0339135 0.0 
0.830466 -0.00617432 0.0 
0.518219 -0.00749011 0.0 
0.376221 -0.0771258 0.0 
0.786039 -0.00713286 0.0 
0.90558 -0.00448144 0.0 
0.569781 -0.0335687 0.0 
0.890253 -0.00344285 0.0 
0.570897 0.0890381 0.0 
0.649743 -0.0248207 0.0 
0.504213 -0.0475969 0.0 
0.253689 -0.0129138 0.0 
0.530963 -0.0400356 0.0 
0.519875 -0.0429425 0.0 
0.774622 -0.0112034 0.0 
0.470757 -0.0555723 0.0 
0.404711 0.105833 0.0 
0.28376 -0.0465637 0.0 
0.918926 0.0731975 0.0 
0.627481 -0.0260869 0.0 
0.559255 -0.0370833 0.0 
0.30586 0.0875268 0.0 
0.875079 -0.00246371 0.0 
0.527772 -0.0426649 0.0 
0.495702 -0.0412087 0.0 
0.65822 -0.021325 0.0 
0.614298 -0.0288185 0.0 
0.268572 -0.0354211 0.0 
0.393767 -0.0598884 0.0 
0.939578 0.0858451 0.0 
0.411274 -0.0632179 0.0 
0.967128 0.0665837 0.0 
0.819495 -0.0157704 0.0 
0.326368 -0.0650132 0.0 
0.443494 -0.0468163 0.0 
0.964835 0.00739409 0.0 
0.404675 0.0453023 0.0 
0.473207 -0.0456878 0.0 
0.83151 0.000423264 0.0 
0.613376 -0.029269 0.0 
0.933256 0.0105796 0.0 
0.609804 -0.0283915 0.0 
0.887824 0.0219714 0.0 
0.877291 0.013068 0.0 
0.596405 -0.0315732 0.0 
0.548119 0.0875606 0.0 
0.740067 0.0179392 0.0 
0.543734 0.131192 0.0 
0.852991 -0.0032396 0.0 
0.487939 -0.0515156 0.0 
0.591749 -0.0320698 0.0 
0.956468 0.00541141 0.0 
0.322146 -0.0492032 0.0 
0.224351 0.081488 0.0 
0.605304 -0.0283338 0.0 
0.339995 -0.049021 0.0 
0.926812 -0.0029581 0.0 
0.916288 0.0437955 0.0 
0.936562 0.0737574 0.0 
0.590899 0.106612 0.0 
0.598124 -0.0308018 0.0 
0.74425 -0.0147694 0.0 
0.547255 0.125469 0.0 
0.571118 -0.0345204 0.0 
0.575902 0.137825 0.0 
0.397125 -0.0735723 0.0 
0.350123 -0.0609405 0.0 
0.215121 0.0530386 0.0 
0.4678 -0.0490832 0.0 
0.817953 -0.00583273 0.0 
0.341234 0.00697392 0.0 
0.308043 -0.0535373 0.0 
0.33307 0.024188 0.0 
0.55924 -0.0374306 0.0 
0.36316 -0.0537691 0.0 
0.206511 0.0797774 0.0 
0.400001 -0.0518657 0.0 
0.288113 -0.0607853 0.0 
0.506582 -0.0418727 0.0 
0.358573 -0.0574981 0.0 
0.287903 -0.0441437 0.0 
0.326876 0.0158629 0.0 
0.2618 0.113858 0.0 
0.784083 0.0218819 0.0 
0.503251 0.0732977 0.0 
0.439861 -0.0532768 0.0 
0.2829 -0.055988 0.0 
0.682896 -0.0207807 0.0 
0.867772 0.00739387 0.0 
0.467263 -0.0385101 0.0 
0.464694 0.00377958 0.0 
0.696361 0.00904069 0.0 
0.555006 -0.0135234 0.0 
0.839831 0.00598156 0.0 
0.909127 0.092053 0.0 
0.849948 0.00428289 0.0 
0.20277 0.0911415 0.0 
0.825982 0.0712713 0.0 
0.343986 0.03271 0.0 
0.806491 0.00292549 0.0 
0.931991 0.0667656 0.0 
0.317359 -0.0718216 0.0 
0.706619 0.0526823 0.0 
0.196354 0.0905015 0.0 
0.216979 0.0953964 0.0 
0.399396 0.0920051 0.0 
0.928805 0.030613 0.0 
0.723812 -0.0109932 0.0 
0.252207 0.13815 0.0 
0.661096 0.0018652 0.0 
0.974054 0.0635657 0.0 
0.271843 0.152643 0.0 
0.754908 -0.00452457 0.0 
0.630849 -0.0268952 0.0 
0.889616 0.0510111 0.0 
0.562521 0.0331983 0.0 
0.754523 -0.00775025 0.0 
0.858337 0.0343667 0.0 
0.743239 -0.00643334 0.0 
0.947598 0.0677005 0.0 
0.687824 -0.0164558 0.0 
0.716396 -0.0135424 0.0 
0.362394 0.0384567 0.0 
0.900249 0.0103045 0.0 
0.982187 0.0707809 0.0 
0.713734 -0.0175337 0.0 
0.864313 0.00125931 0.0 
0.53455 -0.0178061 0.0 
0.875426 0.0260066 0.0 
0.748724 -0.0125496 0.0 
0.900779 0.0072453 0.0 
0.648571 -0.0215759 0.0 
0.92276 -0.00446648 0.0 
0.884993 0.0808464 0.0 
0.944122 0.0905014 0.0 
0.300678 -0.0544639 0.0 
0.783599 -0.00208273 0.0 
0.5507 0.0653378 0.0 
0.320702 -0.0680115 0.0 
0.740593 -0.0115574 0.0 
0.869715 0.0982497 0.0 
0.528304 0.0053046 0.0 
0.70756 -0.0166903 0.0 
0.807136 -0.00410287 0.0 
0.733194 0.085877 0.0 
0.491193 0.12231 0.0 
0.680508 -0.0190501 0.0 
0.79589 -0.00308162 0.0 
0.869429 -0.00026581 0.0 
0.718723 -0.0195148 0.0 
0.335323 0.0417105 0.0 
0.783208 -0.00831288 0.0 
0.666278 -0.0221033 0.0 
0.189306 0.145163 0.0 
0.379315 -0.0571935 0.0 
0.50058 0.06908 0.0 
0.772776 -0.00768078 0.0 
0.469465 -0.00223833 0.0 
0.30487 -0.0474898 0.0 
0.900451 0.0720566 0.0 
0.879154 0.0347985 0.0 
0.884845 0.00445487 0.0 
0.86179 0.00357212 0.0 
0.819202 0.00159113 0.0 
0.710797 0.128791 0.0 
0.971639 0.050309 0.0 
0.584801 0.0355083 0.0 
0.321767 -3.13721e-06 0.0 
0.880483 0.0713895 0.0 
0.189068 0.162203 0.0 
0.342718 -0.055159 0.0 
1.04084 0.0755532 0.0 
0.64611 -0.0241143 0.0 
1.01297 0.0800956 0.0 
0.903859 -0.0153132 0.0 
0.390955 0.0696404 0.0 
0.366636 -0.0658516 0.0 
0.969019 0.0866653 0.0 
0.839888 -0.0018905 0.0 
0.666359 0.00617639 0.0 
0.485559 0.00635078 0.0 
0.214849 0.0255393 0.0 
0.738524 0.0746075 0.0 
0.992263 0.0796544 0.0 
0.660209 0.0123666 0.0 
0.960217 0.0484426 0.0 
0.930602 0.00126189 0.0 
0.944228 0.00354631 0.0 
0.539162 0.0947092 0.0 
0.498922 -0.0446098 0.0 
0.883478 0.00754605 0.0 
0.321438 -0.0607087 0.0 
0.431717 0.00350088 0.0 
0.905751 0.00439075 0.0 
0.848079 0.0088035 0.0 
0.958334 0.0942795 0.0 
0.916614 0.0123429 0.0 
0.285474 -0.0359675 0.0 
0.955181 0.000558411 0.0 
0.782488 0.0763965 0.0 
0.427025 0.0866823 0.0 
0.302057 -0.0400554 0.0 
0.909743 0.0500176 0.0 
0.392475 -0.0668176 0.0 
0.504559 -0.037523 0.0 
0.416876 0.0653477 0.0 
0.83805 0.0223354 0.0 
0.94996 0.0733183 0.0 
0.42229 -0.04493 0.0 
0.870656 -0.00719696 0.0 
0.966542 0.0557897 0.0 
0.797885 -0.0102606 0.0 
0.844659 0.0890031 0.0 
0.462656 -0.042418 0.0 
0.886491 -0.00737152 0.0 
0.862746 0.0473639 0.0 
0.601915 -0.0296843 0.0 
0.82343 -0.00940998 0.0 
0.243506 -0.0184782 0.0 
0.486868 0.12621 0.0 
0.336211 -0.0422587 0.0 
0.371695 0.00643811 0.0 
0.768011 0.0163641 0.0 
0.542872 0.0260968 0.0 
0.718499 -0.0183081 0.0 
0.415375 0.123736 0.0 
0.391705 -0.0461966 0.0 
0.415779 0.118374 0.0 
0.268943 -0.03003 0.0 
0.788267 -0.0132393 0.0 
0.820958 0.102012 0.0 
0.590317 0.0663891 0.0 
0.370666 0.142108 0.0 
0.27006 -0.0243003 0.0 
0.260027 -0.0365254 0.0 
0.271138 -0.0469495 0.0 
0.210206 0.184574 0.0 
0.488552 -0.0491359 0.0 
0.191036 0.172352 0.0 
0.529827 0.0702854 0.0 
1.0242 0.0643393 0.0 
0.749086 0.118582 0.0 
0.406239 -0.041757 0.0 
0.891916 -0.0141081 0.0 
0.378179 0.108505 0.0 
0.636435 -0.0265719 0.0 
0.828411 0.0170794 0.0 
0.912298 0.0589978 0.0 
0.342449 -0.0361032 0.0 
0.678836 -0.0220459 0.0 
0.406309 0.0717431 0.0 
0.41807 0.0404383 0.0 
0.759077 -0.0147632 0.0 
0.922454 0.0383754 0.0 
0.722289 0.123558 0.0 
0.278356 -0.0495209 0.0 
0.302946 -0.0338773 0.0 
0.37148 0.0726939 0.0 
0.283727 -0.0266581 0.0 
0.997875 0.0831079 0.0 
0.434933 0.102085 0.0 
0.526186 -0.0336342 0.0 
0.555648 -0.0334321 0.0 
0.71684 0.117655 0.0 
0.253692 -0.0268935 0.0 
0.499105 0.140559 0.0 
0.942906 -0.00369035 0.0 
1.01546 0.0852947 0.0 
0.60072 0.0238388 0.0 
0.541787 -0.040476 0.0 
0.453005 0.0796461 0.0 
0.964054 0.090237 0.0 
0.947405 -0.0142529 0.0 
0.346725 0.0716217 0.0 
0.518582 0.0415618 0.0 
0.194729 0.071385 0.0 
0.589623 0.093034 0.0 
0.928353 0.0526772 0.0 
0.298583 0.159311 0.0 
0.413258 0.133837 0.0 
0.41818 -0.0596102 0.0 
0.587589 0.0167445 0.0 
0.614117 -0.00531075 0.0 
0.951481 -0.010443 0.0 
0.225893 0.0131475 0.0 
0.9436 0.0147025 0.0 
0.961091 0.0690204 0.0 
0.4843 0.0176126 0.0 
0.955714 0.100582 0.0 
0.346946 -0.0723828 0.0 
0.218546 0.0159843 0.0 
0.441751 -0.0507363 0.0 
0.799134 0.0140821 0.0 
0.71712 -0.00506566 0.0 
0.414267 0.0551644 0.0 
0.847349 0.0390733 0.0 
0.944374 0.00732536 0.0 
0.44157 0.0601723 0.0 
0.233793 0.0174701 0.0 
0.512764 -0.0269578 0.0 
0.855662 -0.0145913 0.0 
0.58393 -0.0306221 0.0 
0.209728 0.044773 0.0 
0.270353 0.0891773 0.0 
0.471999 0.061083 0.0 
0.475801 -0.0241669 0.0 
0.321725 0.110272 0.0 
0.219268 0.021265 0.0 
0.652234 0.0373901 0.0 
0.239958 0.152708 0.0 
0.852907 0.0190616 0.0 
0.612945 0.124244 0.0 
0.478872 0.0480409 0.0 
0.918799 0.00869254 0.0 
0.977118 -0.0121248 0.0 
0.997823 0.0725035 0.0 
0.967218 0.075884 0.0 
0.367576 -0.0804133 0.0 
0.796931 0.00814444 0.0 
0.278135 0.134942 0.0 
0.667628 0.028471 0.0 
0.377632 0.1032 0.0 
0.512793 4.15129e-05 0.0 
0.474473 0.0732268 0.0 
0.21032 0.0935498 0.0 
0.743985 0.12811 0.0 
0.434553 0.0776927 0.0 
0.550357 0.019823 0.0 
0.856259 -0.00584803 0.0 
0.703847 0.0254545 0.0 
0.513208 0.130152 0.0 
0.956259 0.0586109 0.0 
0.616806 0.00617846 0.0 
0.435402 0.106691 0.0 
0.553601 -0.00292753 0.0 
0.257358 0.133339 0.0 
0.778617 -0.0153216 0.0 
0.658695 -0.0164057 0.0 
0.514977 0.0630935 0.0 
0.520006 0.0765843 0.0 
0.309787 0.147449 0.0 
0.193879 0.0729025 0.0 
0.250627 0.0845377 0.0 
0.451509 -0.0554995 0.0 
0.910449 -0.0121099 0.0 
0.556712 0.0602995 0.0 
0.894467 -0.0145116 0.0 
0.610294 -0.021232 0.0 
0.439984 0.120014 0.0 
0.257267 0.0921139 0.0 
0.39845 0.129118 0.0 
0.938651 0.0489916 0.0 
0.759758 -0.0178459 0.0 
0.25316 0.097279 0.0 
0.682669 -0.0212727 0.0 
0.808311 0.107556 0.0 
0.237311 0.000925733 0.0 
0.66388 -0.0200208 0.0 
0.636483 -0.0227276 0.0 
0.719324 0.0118825 0.0 
0.713021 -0.0192036 0.0 
0.820398 0.0372181 0.0 
0.987822 -0.0130462 0.0 
0.799729 -0.0164746 0.0 
0.709168 -0.00844923 0.0 
0.329184 0.117458 0.0 
0.323501 -0.0171254 0.0 
0.263876 0.0366852 0.0 
0.386258 -0.0389192 0.0 
0.952336 0.010363 0.0 
0.273669 0.107594 0.0 
0.242928 0.107545 0.0 
0.720279 -0.0195801 0.0 
0.860642 0.0865254 0.0 
0.565879 0.0956238 0.0 
0.264386 0.141003 0.0 
0.602998 0.0576964 0.0 
0.342636 0.121138 0.0 
0.339403 0.153976 0.0 
0.2534 0.0136832 0.0 
0.289725 0.105419 0.0 
0.780889 0.122431 0.0 
0.736606 -0.0179639 0.0 
0.924588 -0.00624909 0.0 
0.861644 0.068228 0.0 
0.798083 0.08197 0.0 
0.732203 0.00768331 0.0 
0.878482 0.0602654 0.0 
0.195366 0.103052 0.0 
0.454139 -0.029091 0.0 
0.831259 0.0123728 0.0 
0.191434 0.0853612 0.0 
0.499685 0.0383163 0.0 
0.352496 0.0790988 0.0 
0.39861 0.0241308 0.0 
0.443935 -0.0237801 0.0 
0.666068 0.07334 0.0 
0.289953 0.0617982 0.0 
0.19575 0.122345 0.0 
0.686092 -0.0205245 0.0 
0.907412 -0.0099819 0.0 
0.261646 0.0804304 0.0 
0.919551 0.106091 0.0 
1.00637 0.0882567 0.0 
0.265204 0.0131828 0.0 
0.32854 0.0837564 0.0 
0.646473 -0.0117365 0.0 
0.687025 0.0918611 0.0 
0.98043 0.0601402 0.0 
0.456875 0.107837 0.0 
0.361195 0.136331 0.0 
0.550982 0.0471837 0.0 
0.365245 0.0232871 0.0 
0.754896 -0.0166364 0.0 
0.234403 0.078897 0.0 
0.276064 -0.000365311 0.0 
0.76047 0.0957709 0.0 
0.20844 0.0390238 0.0 
0.901813 0.109412 0.0 
0.689455 -0.000724555 0.0 
1.01863 0.0827426 0.0 
0.188904 0.0952535 0.0 
0.891186 0.0951312 0.0 
0.287426 0.069332 0.0 
0.886628 -0.0131836 0.0 
0.822561 -0.00196661 0.0 
0.203201 0.0471044 0.0 
0.443742 0.0974005 0.0 
0.433179 0.126996 0.0 
0.609047 0.097909 0.0 
0.780385 -0.016986 0.0 
0.211401 0.0385673 0.0 
0.198852 0.058112 0.0 
0.667422 -0.00377303 0.0 
0.318906 0.152928 0.0 
0.99188 -0.0155575 0.0 
0.198075 0.0595618 0.0 
0.190992 0.0834535 0.0 
0.205948 0.0395909 0.0 
0.359478 -0.0113321 0.0 
0.271176 -0.0415609 0.0 
0.205644 0.0442761 0.0 
0.89437 0.0769401 0.0 
0.347121 0.0950649 0.0 
0.217545 0.0356646 0.0 
0.758699 0.0890329 0.0 
0.807282 0.074845 0.0 
0.468636 0.0934154 0.0 
0.553264 -0.0282511 0.0 
0.919187 0.0208673 0.0 
0.301162 0.128214 0.0 
0.34796 0.0859311 0.0 
0.743431 0.0595883 0.0 
1.02992 0.0685789 0.0 
0.741083 0.0537094 0.0 
0.749174 0.124131 0.0 
0.278237 0.054015 0.0 
0.448062 -0.0349127 0.0 
0.481087 -0.0317708 0.0 
0.640872 -0.0240528 0.0 
0.436548 0.135788 0.0 
0.682452 0.12687 0.0 
0.637752 0.0723869 0.0 
0.426526 0.143927 0.0 
0.375567 -0.0729915 0.0 
0.915894 -0.0138414 0.0 
0.820319 0.0854497 0.0 
0.348213 0.142146 0.0 
0.629997 0.0407085 0.0 
0.518875 0.123566 0.0 
0.818521 -0.0124542 0.0 
0.524299 0.100756 0.0 
0.308855 -0.0607882 0.0 
0.563032 0.068408 0.0 
0.632438 0.0640153 0.0 
0.667315 0.133424 0.0 
0.915733 0.0665225 0.0 
0.352582 0.109254 0.0 
0.906787 -0.00706003 0.0 
0.56965 0.0128205 0.0 
0.19437 0.0768921 0.0 
0.623548 0.0180172 0.0 
0.214101 0.0841236 0.0 
0.198713 0.0622996 0.0 
0.203047 0.0550232 0.0 
0.236532 0.0680003 0.0 
0.829745 -0.0149492 0.0 
0.744004 -0.0146609 0.0 
0.758839 0.0214937 0.0 
0.903698 -0.0154215 0.0 
0.796685 -0.0156352 0.0 
1.03238 0.0739416 0.0 
0.803565 -0.015693 0.0 
0.462243 -0.0564898 0.0 
0.399359 0.0969014 0.0 
0.263361 0.072185 0.0 
0.754303 0.111565 0.0 
0.959344 0.0402564 0.0 
0.218675 0.14004 0.0 
0.190346 0.104752 0.0 
0.963732 -0.014422 0.0 
0.594682 -0.0179162 0.0 
0.955848 0.0324708 0.0 
0.261896 0.000356617 0.0 
0.383139 0.112517 0.0 
0.881944 -0.0154487 0.0 
0.564984 0.111796 0.0 
0.606868 0.0522085 0.0 
0.500432 0.104142 0.0 
0.47153 0.0882936 0.0 
0.207184 0.117706 0.0 
0.975672 0.0802129 0.0 
0.702469 0.0718705 0.0 
0.598001 -0.0264838 0.0 
0.50787 -0.0219102 0.0 
0.297739 -0.0127266 0.0 
0.220262 0.0609086 0.0 
0.950608 -0.0136416 0.0 
0.390138 0.0353065 0.0 
0.956395 0.0209083 0.0 
0.955842 -0.00205324 0.0 
0.520261 -0.0313235 0.0 
0.270074 -0.045432 0.0 
0.951068 -0.0155855 0.0 
0.637724 0.133335 0.0 
0.825227 -0.0131863 0.0 
0.290872 0.0435578 0.0 
0.389846 0.117192 0.0 
0.618222 0.111404 0.0 
0.355274 0.114149 0.0 
0.425678 -0.0655656 0.0 
1.00158 0.0445825 0.0 
0.69163 -0.0213507 0.0 
0.923671 0.0887247 0.0 
0.277075 0.0345835 0.0 
0.824799 0.0919386 0.0 
0.680309 0.0590825 0.0 
0.226135 0.0360528 0.0 
0.584842 0.0711476 0.0 
0.8654 0.109053 0.0 
0.999194 0.0146147 0.0 
0.523781 0.0819597 0.0 
0.944311 -0.0119128 0.0 
0.977987 -0.014595 0.0 
0.894388 0.101102 0.0 
0.916366 0.0113082 0.0 
0.282809 0.0809522 0.0 
0.309143 0.0230206 0.0 
0.970792 0.0296775 0.0 
0.226945 0.101389 0.0 
0.759171 0.0805095 0.0 
0.544508 0.0778551 0.0 
0.973288 0.0464482 0.0 
0.964275 -0.0123621 0.0 
1.00461 0.0676234 0.0 
0.204063 0.140432 0.0 
1.00662 0.0525881 0.0 
0.310065 0.062609 0.0 
0.713874 -0.01668 0.0 
0.525897 0.0496475 0.0 
0.935863 -0.0131145 0.0 
0.642983 -0.0188577 0.0 
0.966793 0.00576832 0.0 
0.960513 0.0806135 0.0 
0.436187 -0.0556627 0.0 
0.246939 0.0605409 0.0 
0.858492 -0.0154876 0.0 
0.927012 0.00827586 0.0 
0.249029 0.145571 0.0 
0.308139 0.141317 0.0 
0.788687 -0.0156563 0.0 
0.212292 0.0275358 0.0 
0.624992 0.0304744 0.0 
0.219164 0.11978 0.0 
0.933636 0.0182767 0.0 
0.571839 0.0400275 0.0 
0.307788 0.08097 0.0 
0.94871 0.097185 0.0 
0.882816 0.0879311 0.0 
0.330788 0.0770814 0.0 
0.595471 0.0848534 0.0 
0.992813 0.00962968 0.0 
0.674807 0.0339799 0.0 
0.754688 -0.000864084 0.0 
0.699122 0.0448114 0.0 
0.275919 0.0244261 0.0 
0.976292 -0.000850646 0.0 
1.01765 0.0682232 0.0 
0.3697 0.131072 0.0 
0.978715 -0.00635098 0.0 
0.34453 0.135666 0.0 
0.62703 0.138522 0.0 
0.229606 0.126877 0.0 
0.976766 0.00746302 0.0 
0.241178 0.0256578 0.0 
0.293808 0.0215018 0.0 
0.757758 0.0340274 0.0 
0.888451 -0.000865601 0.0 
0.881985 -0.0119597 0.0 
0.858178 -0.0140144 0.0 
0.206176 0.0630958 0.0 
0.199346 0.0744257 0.0 
0.404592 0.0029273 0.0 
0.44572 0.144943 0.0 
0.305981 0.116204 0.0 
0.578558 0.0623365 0.0 
0.616018 0.000590736 0.0 
0.835016 0.0294689 0.0 
0.80088 0.088788 0.0 
0.57477 -0.0247031 0.0 
0.72247 -0.0188194 0.0 
0.333409 0.0574489 0.0 
0.808851 0.0275718 0.0 
1.01998 0.0432276 0.0 
0.318838 0.0724174 0.0 
0.818005 -0.00935178 0.0 
0.196751 0.13573 0.0 
1.00865 0.0585016 0.0 
0.63469 0.0331117 0.0 
0.247033 0.00327093 0.0 
0.993693 0.0452685 0.0 
0.828925 0.00227406 0.0 
1.04461 0.0712147 0.0 
0.926855 -0.0113366 0.0 
0.941452 -0.0154843 0.0 
0.373367 0.0965209 0.0 
0.723857 0.0996461 0.0 
0.748785 -0.0179431 0.0 
0.403505 -0.0702433 0.0 
0.958287 -0.0155538 0.0 
0.753968 0.00207122 0.0 
0.752585 0.00510094 0.0 
0.491526 0.136708 0.0 
0.233628 0.0573457 0.0 
0.837405 0.0643238 0.0 
0.531944 0.085325 0.0 
0.497033 -0.0498391 0.0 
0.905139 0.00514481 0.0 
0.989736 0.0254377 0.0 
0.486825 0.0434604 0.0 
0.832588 -0.0159001 0.0 
0.453176 -0.0600371 0.0 
0.878915 -0.0150939 0.0 
0.63047 0.118174 0.0 
0.576582 0.0448108 0.0 
0.332236 0.04972 0.0 
0.952488 0.00997336 0.0 
0.472026 0.0545408 0.0 
0.487156 -0.0477063 0.0 
0.961103 -0.00824212 0.0 
1.00651 0.0318289 0.0 
0.943297 -0.000536656 0.0 
0.369066 0.0834659 0.0 
0.329284 0.127151 0.0 
0.843627 0.0822304 0.0 
0.240273 -0.0102991 0.0 
0.985294 0.036712 0.0 
0.353637 0.100656 0.0 
0.472362 0.028237 0.0 
0.71913 0.106032 0.0 
0.312783 0.0678813 0.0 
0.81171 0.0657649 0.0 
0.922347 -0.0155106 0.0 
0.292117 0.031944 0.0 
1.00489 0.0406773 0.0 
0.838042 -0.0133043 0.0 
0.942034 0.0304133 0.0 
0.294658 0.00257442 0.0 
0.619434 0.0114251 0.0 
0.980865 -0.011133 0.0 
0.250458 -0.0183076 0.0 
0.320149 0.133822 0.0 
0.788822 -0.0137947 0.0 
0.986433 0.0558537 0.0 
0.212088 0.111585 0.0 
0.911289 -0.0123367 0.0 
0.328416 0.158876 0.0 
0.553945 -0.0218189 0.0 
0.868537 -0.0151979 0.0 
0.938761 -0.00614864 0.0 
0.968807 0.0378905 0.0 
0.65912 0.0234159 0.0 
0.390178 0.0503182 0.0 
0.688344 -0.0183928 0.0 
0.494301 0.111221 0.0 