<VTKFile type="UnstructuredGrid" version="0.1" byte_order="LittleEndian">
  <UnstructuredGrid>
    <Piece NumberOfPoints="16355" NumberOfCells="32230">
      <Points>
        <DataArray type = "Float64" NumberOfComponents="3" format="ascii">
1.19021 0.993348 0.0 
1.20151 0.961932 0.0 
1.15101 0.958278 0.0 
1.17666 0.99809 0.0 
1.13034 1.01003 0.0 
1.16011 0.959243 0.0 
1.20912 0.98632 0.0 
1.13271 1.00963 0.0 
1.16244 0.962268 0.0 
1.1334 0.970409 0.0 
1.18945 0.95372 0.0 
1.13024 1.01202 0.0 
1.15126 0.959446 0.0 
1.11359 0.985504 0.0 
1.28021 0.956593 0.0 
1.21212 0.960216 0.0 
1.15278 0.961624 0.0 
1.13554 0.969573 0.0 
1.15722 0.960024 0.0 
1.17019 0.998474 0.0 
1.15542 0.957227 0.0 
1.11843 1.01576 0.0 
1.15623 0.965323 0.0 
1.11012 1.01329 0.0 
1.14705 0.966359 0.0 
1.12667 1.00843 0.0 
1.15657 0.964062 0.0 
1.17372 0.99714 0.0 
1.19065 0.959229 0.0 
1.14849 0.957635 0.0 
1.14775 0.967357 0.0 
1.11214 1.01404 0.0 
1.13009 1.00918 0.0 
1.15602 0.958208 0.0 
1.14701 1.00891 0.0 
1.14922 0.961431 0.0 
1.25712 0.956355 0.0 
1.12428 1.00773 0.0 
1.14103 0.965338 0.0 
1.20191 0.961251 0.0 
1.12601 1.0078 0.0 
1.11574 1.01455 0.0 
1.1564 1.00411 0.0 
1.1496 0.966717 0.0 
1.19376 0.957449 0.0 
1.15072 0.966181 0.0 
1.15777 1.00474 0.0 
1.1524 0.962491 0.0 
1.153 0.963943 0.0 
1.14792 0.960754 0.0 
1.20378 0.960589 0.0 
1.20072 0.95974 0.0 
1.15316 1.00596 0.0 
1.16503 0.959169 0.0 
1.14781 1.00358 0.0 
1.11038 0.98654 0.0 
1.2301 0.986999 0.0 
1.15698 0.960845 0.0 
1.19303 0.995639 0.0 
1.12449 1.0064 0.0 
1.14996 0.96519 0.0 
1.15 1.00836 0.0 
1.15903 0.963402 0.0 
1.14639 0.964459 0.0 
1.16995 0.958664 0.0 
1.27327 0.960099 0.0 
1.21188 0.961653 0.0 
1.1127 0.985919 0.0 
1.20612 0.986499 0.0 
1.14558 0.959389 0.0 
1.19437 0.991866 0.0 
1.19083 0.990404 0.0 
1.11417 0.984311 0.0 
1.15319 0.969631 0.0 
1.16567 1.00377 0.0 
1.15927 0.964879 0.0 
1.14808 1.00981 0.0 
1.19314 0.988535 0.0 
1.20166 0.987407 0.0 
1.16857 0.959555 0.0 
1.15138 0.960306 0.0 
1.18428 0.998951 0.0 
1.14133 0.964464 0.0 
1.2121 0.986751 0.0 
1.16351 0.958328 0.0 
1.15497 0.959308 0.0 
1.14847 0.96244 0.0 
1.20124 0.986446 0.0 
1.13315 1.00794 0.0 
1.11267 0.985164 0.0 
1.13063 1.00837 0.0 
1.18286 0.959652 0.0 
1.1599 0.964294 0.0 
1.13358 1.01324 0.0 
1.28498 0.96218 0.0 
1.12318 1.00691 0.0 
1.16144 0.963751 0.0 
1.12505 1.00716 0.0 
1.17298 0.959124 0.0 
1.12306 1.0074 0.0 
1.1392 1.00902 0.0 
1.12723 1.00659 0.0 
1.20404 0.959919 0.0 
1.19473 0.990562 0.0 
1.13387 0.96922 0.0 
1.20974 0.958263 0.0 
1.16077 0.960072 0.0 
1.19808 0.958636 0.0 
1.128 1.00978 0.0 
1.14659 1.00949 0.0 
1.15342 0.96576 0.0 
1.30345 0.957941 0.0 
1.15641 0.964747 0.0 
1.19849 0.957854 0.0 
1.14703 0.96562 0.0 
1.19024 0.992399 0.0 
1.15229 0.963322 0.0 
1.11311 0.985229 0.0 
1.19198 0.991043 0.0 
1.15329 0.965234 0.0 
1.1525 1.00673 0.0 
1.11366 0.98474 0.0 
1.13195 1.01055 0.0 
1.1974 0.990804 0.0 
1.18899 0.991878 0.0 
1.14533 0.961774 0.0 
1.20166 0.959128 0.0 
1.15028 0.965721 0.0 
1.16626 0.961946 0.0 
1.1295 1.01119 0.0 
1.1718 0.960669 0.0 
1.16665 1.00545 0.0 
1.15879 0.962225 0.0 
1.19576 0.991198 0.0 
1.30779 0.956859 0.0 
1.20191 0.962507 0.0 
1.1624 1.00459 0.0 
1.30056 0.959509 0.0 
1.17094 0.952636 0.0 
1.16095 0.96167 0.0 
1.14701 1.00403 0.0 
1.12707 0.972303 0.0 
1.14513 0.960817 0.0 
1.1568 0.961797 0.0 
1.19486 0.961145 0.0 
1.17697 1.00027 0.0 
1.16794 0.958093 0.0 
1.1132 0.986129 0.0 
1.14402 1.00985 0.0 
1.14843 0.963217 0.0 
1.20629 0.989339 0.0 
1.2074 0.957728 0.0 
1.18509 0.957077 0.0 
1.15597 0.96337 0.0 
1.12456 1.00828 0.0 
1.16211 0.963005 0.0 
1.20378 0.95827 0.0 
1.19377 0.99111 0.0 
1.13482 1.01012 0.0 
1.16841 0.960425 0.0 
1.14941 0.964597 0.0 
1.20749 0.961094 0.0 
1.18648 0.956175 0.0 
1.13306 1.00875 0.0 
1.15905 0.962823 0.0 
1.20793 0.960483 0.0 
1.12479 1.00583 0.0 
1.1949 0.989889 0.0 
1.14328 0.961554 0.0 
1.12865 1.00859 0.0 
1.14868 0.963923 0.0 
1.1683 0.961225 0.0 
1.15166 0.969313 0.0 
1.17263 0.959883 0.0 
1.206 0.959243 0.0 
1.18052 0.997882 0.0 
1.19323 0.992388 0.0 
1.14377 0.964647 0.0 
1.14152 0.962687 0.0 
1.15071 0.963978 0.0 
1.13823 1.00603 0.0 
1.28319 0.954892 0.0 
1.15172 1.00886 0.0 
1.16458 0.961016 0.0 
1.20636 0.962767 0.0 
1.19666 0.989541 0.0 
1.14716 0.959954 0.0 
1.20823 0.984981 0.0 
1.19156 0.992066 0.0 
1.17758 0.957695 0.0 
1.19464 0.953085 0.0 
1.19282 0.992974 0.0 
1.19776 0.961657 0.0 
1.22949 0.950859 0.0 
1.27277 0.964125 0.0 
1.19713 0.959585 0.0 
1.14046 0.963705 0.0 
1.15917 0.958558 0.0 
1.1363 0.968921 0.0 
1.17618 0.956767 0.0 
1.16574 0.957448 0.0 
1.15374 0.960592 0.0 
1.17597 0.998799 0.0 
1.12805 1.01346 0.0 
1.15398 0.968307 0.0 
1.11089 0.987001 0.0 
1.1646 0.960205 0.0 
1.1713 1.00069 0.0 
1.15077 0.96727 0.0 
1.29199 0.957777 0.0 
1.15211 0.966787 0.0 
1.10666 0.976019 0.0 
1.10693 0.97466 0.0 
1.1237 1.00526 0.0 
1.10524 0.981071 0.0 
1.13101 0.97056 0.0 
1.12872 0.971162 0.0 
1.13535 1.01107 0.0 
1.15698 1.00624 0.0 
1.10316 0.981553 0.0 
1.10329 0.982185 0.0 
1.12286 1.00588 0.0 
1.0999 0.97947 0.0 
1.1624 1.00515 0.0 
1.1352 0.967039 0.0 
1.25095 0.958519 0.0 
1.11154 0.973791 0.0 
1.15072 1.00706 0.0 
1.2942 0.955181 0.0 
1.1355 1.00651 0.0 
1.10431 0.982628 0.0 
1.1599 1.00817 0.0 
1.10585 0.980267 0.0 
1.17291 0.957804 0.0 
1.1114 0.972636 0.0 
1.10873 0.975433 0.0 
1.10792 0.976756 0.0 
1.13831 0.968972 0.0 
1.10399 0.981256 0.0 
1.14886 1.00753 0.0 
1.1348 1.00735 0.0 
1.10602 0.980838 0.0 
1.19593 0.987727 0.0 
1.10715 0.977444 0.0 
1.19744 0.987312 0.0 
1.15589 0.962671 0.0 
1.10408 0.981901 0.0 
1.24842 0.956378 0.0 
1.10243 0.981202 0.0 
1.10208 0.981828 0.0 
1.19935 0.986854 0.0 
1.13573 1.00821 0.0 
1.16466 1.00474 0.0 
1.19448 0.987818 0.0 
1.1705 0.957146 0.0 
1.1717 1.00329 0.0 
1.13211 1.01264 0.0 
1.13912 1.01125 0.0 
1.19362 0.989464 0.0 
1.12351 1.01614 0.0 
1.14065 0.969078 0.0 
1.26741 0.964878 0.0 
1.10335 0.983215 0.0 
1.11178 0.986915 0.0 
1.1052 0.980435 0.0 
1.14465 0.967865 0.0 
1.23422 0.953761 0.0 
1.19526 0.988448 0.0 
1.13804 1.01017 0.0 
1.17636 0.997361 0.0 
1.19277 0.991723 0.0 
1.14129 1.01212 0.0 
1.19477 0.992747 0.0 
1.19368 0.958158 0.0 
1.13767 1.01202 0.0 
1.11149 0.974439 0.0 
1.10595 0.986888 0.0 
1.12621 0.962728 0.0 
1.11293 0.981176 0.0 
1.18794 0.99461 0.0 
1.20714 0.983521 0.0 
1.11054 0.985745 0.0 
1.11177 0.985831 0.0 
1.11117 0.985529 0.0 
1.19633 0.990341 0.0 
1.10582 0.977737 0.0 
1.12502 1.00893 0.0 
1.10644 0.980104 0.0 
1.21212 0.955368 0.0 
1.195 0.989138 0.0 
1.10403 0.983297 0.0 
1.11064 0.974297 0.0 
1.10029 0.981218 0.0 
1.17053 1.00247 0.0 
1.14218 1.01139 0.0 
1.11232 0.98876 0.0 
1.11109 0.98626 0.0 
1.18638 0.998193 0.0 
1.12466 1.01499 0.0 
1.27488 0.963133 0.0 
1.10427 0.978637 0.0 
1.10284 0.973312 0.0 
1.10856 0.968811 0.0 
1.11181 0.987954 0.0 
1.11356 0.983902 0.0 
1.10727 0.976458 0.0 
1.24404 0.958002 0.0 
1.1965 0.988876 0.0 
1.21859 0.955899 0.0 
1.10453 0.979248 0.0 
1.20839 0.952478 0.0 
1.14768 1.00696 0.0 
1.12886 1.0141 0.0 
1.13541 1.01263 0.0 
1.11441 0.983562 0.0 
1.11462 0.982727 0.0 
1.11306 0.984478 0.0 
1.10531 0.981659 0.0 
1.12693 1.01454 0.0 
1.11231 0.984624 0.0 
1.11 0.985229 0.0 
1.11165 0.984913 0.0 
1.11219 0.985492 0.0 
1.11225 0.986346 0.0 
1.13572 0.970256 0.0 
1.1678 0.969699 0.0 
1.15709 1.00549 0.0 
1.10463 0.980977 0.0 
1.10034 0.978702 0.0 
1.11277 0.986766 0.0 
1.19446 0.970687 0.0 
1.10364 0.982669 0.0 
1.16096 0.965741 0.0 
1.14329 0.966298 0.0 
1.12889 1.01277 0.0 
1.17953 0.997277 0.0 
1.15367 1.00712 0.0 
1.12724 1.00911 0.0 
1.12296 1.0046 0.0 
1.15269 1.00822 0.0 
1.18373 0.999633 0.0 
1.14392 0.967436 0.0 
1.2014 0.970153 0.0 
1.13248 0.964753 0.0 
1.1871 0.95464 0.0 
1.14969 1.01011 0.0 
1.19695 0.992711 0.0 
1.19924 0.990798 0.0 
1.18884 0.952594 0.0 
1.18073 0.998792 0.0 
1.1263 1.01396 0.0 
1.18472 0.998329 0.0 
1.2123 0.981257 0.0 
1.17413 0.969221 0.0 
1.19786 0.991675 0.0 
1.13217 1.01135 0.0 
1.18576 0.996248 0.0 
1.1048 0.979823 0.0 
1.18193 0.999352 0.0 
1.15498 1.00848 0.0 
1.17718 0.999254 0.0 
1.17146 0.964015 0.0 
1.21936 0.986477 0.0 
1.19885 0.985701 0.0 
1.10587 0.982916 0.0 
1.12713 1.00729 0.0 
1.18077 0.996486 0.0 
1.17555 1.00076 0.0 
1.10666 0.976983 0.0 
1.18852 0.9958 0.0 
1.13238 0.970895 0.0 
1.19143 0.993142 0.0 
1.28822 0.956061 0.0 
1.10294 0.9806 0.0 
1.13694 0.958128 0.0 
1.21137 0.984654 0.0 
1.20243 0.984817 0.0 
1.14968 1.00913 0.0 
1.14728 1.0083 0.0 
1.2047 0.983106 0.0 
1.10263 0.982175 0.0 
1.14628 1.00561 0.0 
1.20334 0.985888 0.0 
1.16025 1.00456 0.0 
1.20813 0.959919 0.0 
1.18035 0.968182 0.0 
1.10586 0.982394 0.0 
1.19366 0.969658 0.0 
1.12531 1.01569 0.0 
1.2056 0.985397 0.0 
1.1411 0.968355 0.0 
1.16812 1.00227 0.0 
1.17933 0.998226 0.0 
1.1799 0.96886 0.0 
1.16496 1.0061 0.0 
1.12188 1.01557 0.0 
1.17913 0.970471 0.0 
1.25039 0.95755 0.0 
1.13609 0.96287 0.0 
1.24192 0.95705 0.0 
1.19102 0.996304 0.0 
1.10847 0.972499 0.0 
1.16995 1.00149 0.0 
1.17037 0.96588 0.0 
1.17284 0.998846 0.0 
1.17842 0.959077 0.0 
1.17471 1.00171 0.0 
1.16868 1.00338 0.0 
1.20448 0.984183 0.0 
1.2885 0.960585 0.0 
1.16381 1.00734 0.0 
1.1907 0.995376 0.0 
1.10801 0.970913 0.0 
1.14058 0.969754 0.0 
1.1959 0.992032 0.0 
1.16362 1.00649 0.0 
1.10088 0.980347 0.0 
1.19528 0.994332 0.0 
1.17318 1.00245 0.0 
1.17512 0.99785 0.0 
1.14885 1.00534 0.0 
1.12844 0.971759 0.0 
1.11023 0.982885 0.0 
1.20577 0.990172 0.0 
1.1971 0.953766 0.0 
1.1994 0.977819 0.0 
1.17392 1.00101 0.0 
1.27382 0.957169 0.0 
1.18262 0.998525 0.0 
1.15314 0.964696 0.0 
1.19988 0.991963 0.0 
1.19851 0.990052 0.0 
1.18742 0.996968 0.0 
1.15708 1.00825 0.0 
1.10969 0.97446 0.0 
1.14071 0.961696 0.0 
1.19604 0.993583 0.0 
1.19419 0.993687 0.0 
1.20613 0.98763 0.0 
1.1565 1.00772 0.0 
1.16244 1.00593 0.0 
1.20373 0.987798 0.0 
1.10282 0.978849 0.0 
1.1082 0.97308 0.0 
1.17938 0.999028 0.0 
1.14383 1.0108 0.0 
1.20488 0.980948 0.0 
1.20505 0.982089 0.0 
1.16055 1.0055 0.0 
1.18387 0.995634 0.0 
1.20383 0.986883 0.0 
1.13788 0.965395 0.0 
1.11365 0.981482 0.0 
[...]
<PointData>
  <DataArray type = "Float64" Name="Vitesse" NumberOfComponents="3" format="ascii">
-0.0519501 -0.241896 0.0 
0.972194 -0.0130619 0.0 
1.07594 -0.102223 0.0 
-0.0236991 -0.196045 0.0 
0.170037 0.0864662 0.0 
1.05657 -0.0943518 0.0 
0.141274 -0.157832 0.0 
0.174198 0.081849 0.0 
0.974101 -0.0860552 0.0 
0.833568 -0.0473752 0.0 
1.11349 -0.0425581 0.0 
0.22131 0.0739702 0.0 
1.06454 -0.100776 0.0 
-0.0610079 -0.0696001 0.0 
0.96446 0.0570316 0.0 
1.03092 0.0190333 0.0 
1.0253 -0.0949961 0.0 
0.851059 -0.0519237 0.0 
1.04717 -0.0956886 0.0 
-0.0108842 -0.152157 0.0 
1.0812 -0.0994279 0.0 
0.247094 0.0608309 0.0 
0.859772 -0.0729837 0.0 
0.115482 0.0706668 0.0 
0.885503 -0.0699907 0.0 
0.108365 0.103978 0.0 
0.9254 -0.0816901 0.0 
-0.0374157 -0.178221 0.0 
1.04529 -0.0404833 0.0 
1.08184 -0.104685 0.0 
0.817642 -0.058104 0.0 
0.14939 0.0684796 0.0 
0.147125 0.0923389 0.0 
1.07292 -0.0984766 0.0 
0.232026 0.0140224 0.0 
1.03963 -0.0981758 0.0 
1.00877 0.071609 0.0 
0.0779976 0.111165 0.0 
0.983147 -0.0869899 0.0 
0.996281 -0.0109144 0.0 
0.0894971 0.108662 0.0 
0.189648 0.0683293 0.0 
0.126482 -0.0410034 0.0 
0.837375 -0.0639263 0.0 
1.08072 -0.0317579 0.0 
0.858354 -0.0686542 0.0 
0.146525 -0.0532334 0.0 
1.00454 -0.0922217 0.0 
0.951967 -0.0847525 0.0 
1.054 -0.101027 0.0 
1.01776 -0.00478857 0.0 
1.03824 -0.0131289 0.0 
0.170897 -0.0192943 0.0 
1.05332 -0.0895322 0.0 
0.0911004 0.0288106 0.0 
-0.0227058 -0.0865488 0.0 
0.254177 -0.0407475 0.0 
1.03154 -0.094267 0.0 
-0.0491696 -0.248765 0.0 
0.048006 0.118285 0.0 
0.91794 -0.0781454 0.0 
0.228964 -0.00400785 0.0 
0.942144 -0.0837479 0.0 
0.974186 -0.0869579 0.0 
1.05907 -0.0837584 0.0 
0.944021 0.0695024 0.0 
0.995065 0.0176344 0.0 
-0.0554335 -0.0795073 0.0 
0.117508 -0.17331 0.0 
1.07301 -0.105492 0.0 
-0.0292899 -0.237731 0.0 
-0.0317636 -0.231997 0.0 
-0.0289139 -0.0755775 0.0 
0.549782 -0.0215471 0.0 
0.125131 -0.114952 0.0 
0.863322 -0.0746607 0.0 
0.263286 0.0028322 0.0 
0.00114874 -0.222049 0.0 
0.0711481 -0.196845 0.0 
1.04228 -0.0850496 0.0 
1.05321 -0.0992442 0.0 
-0.0196621 -0.230209 0.0 
1.00703 -0.0925624 0.0 
0.152745 -0.145271 0.0 
1.0679 -0.0917975 0.0 
1.06142 -0.0983542 0.0 
1.0213 -0.0953621 0.0 
0.0852332 -0.191968 0.0 
0.133917 0.0902626 0.0 
-0.0325324 -0.095353 0.0 
0.13018 0.0956176 0.0 
1.03299 -0.0594149 0.0 
0.893269 -0.0781701 0.0 
0.278671 0.0558307 0.0 
0.893656 0.06214 0.0 
0.0529285 0.116524 0.0 
0.913072 -0.0803385 0.0 
0.0689102 0.113528 0.0 
1.04848 -0.0788853 0.0 
0.0635187 0.114017 0.0 
0.195816 0.058875 0.0 
0.0674897 0.11327 0.0 
1.03536 -0.00359561 0.0 
-0.0147487 -0.231457 0.0 
0.896963 -0.0644341 0.0 
1.06711 0.0124324 0.0 
1.04084 -0.0927534 0.0 
1.06113 -0.0202485 0.0 
0.149422 0.0933674 0.0 
0.246699 0.0139953 0.0 
0.857856 -0.0707548 0.0 
0.91871 0.0352862 0.0 
0.891531 -0.0772403 0.0 
1.07487 -0.0190005 0.0 
0.922547 -0.0770436 0.0 
-0.0483449 -0.23936 0.0 
0.979113 -0.0885395 0.0 
-0.0432587 -0.0853134 0.0 
-0.0324039 -0.235087 0.0 
0.889185 -0.0754563 0.0 
0.190999 -0.0165474 0.0 
-0.0369079 -0.081677 0.0 
0.193341 0.0785579 0.0 
-0.00409755 -0.22864 0.0 
-0.0499061 -0.23638 0.0 
1.04561 -0.100414 0.0 
1.0517 -0.0102396 0.0 
0.888463 -0.0734108 0.0 
0.974907 -0.083463 0.0 
0.194367 0.0811459 0.0 
1.00896 -0.0792183 0.0 
0.175598 -0.122104 0.0 
0.988623 -0.0890246 0.0 
-0.0166026 -0.233226 0.0 
0.925118 0.0296233 0.0 
0.951052 -0.012847 0.0 
0.147874 -0.0901091 0.0 
0.903667 0.0406474 0.0 
1.10714 -0.0799942 0.0 
0.999525 -0.0892287 0.0 
0.0998702 0.0332945 0.0 
0.822558 -0.0524224 0.0 
1.05967 -0.10314 0.0 
1.0084 -0.0918894 0.0 
0.991853 -0.0305976 0.0 
0.0195257 -0.194604 0.0 
1.06904 -0.0866333 0.0 
-0.0718045 -0.065127 0.0 
0.244371 0.028197 0.0 
1.00161 -0.091789 0.0 
0.0682419 -0.191071 0.0 
1.07564 0.00578603 0.0 
1.08484 -0.054042 0.0 
0.958936 -0.0859883 0.0 
0.0925508 0.107774 0.0 
0.945364 -0.0833987 0.0 
1.06843 -0.00409744 0.0 
-0.0249729 -0.234752 0.0 
0.199454 0.0714787 0.0 
1.02082 -0.0842418 0.0 
0.948166 -0.0828421 0.0 
1.00702 0.00566896 0.0 
1.09609 -0.0504786 0.0 
0.153817 0.0859891 0.0 
0.966026 -0.0864761 0.0 
1.02325 0.00732597 0.0 
0.0362392 0.120985 0.0 
-0.00617206 -0.227929 0.0 
1.05509 -0.103064 0.0 
0.123899 0.0991668 0.0 
0.97819 -0.0877666 0.0 
0.996324 -0.0830016 0.0 
0.604176 -0.026797 0.0 
1.03048 -0.0790413 0.0 
1.05071 0.00221947 0.0 
-0.0308892 -0.21639 0.0 
-0.0378934 -0.240303 0.0 
0.985409 -0.0880766 0.0 
1.04416 -0.101205 0.0 
0.964 -0.0859899 0.0 
0.113397 0.0793684 0.0 
0.972198 0.0517795 0.0 
0.25061 -0.0182428 0.0 
1.01053 -0.0873726 0.0 
0.95039 -0.000246114 0.0 
0.0078076 -0.22333 0.0 
1.06524 -0.103197 0.0 
0.161523 -0.152992 0.0 
-0.0418671 -0.239032 0.0 
1.07418 -0.070768 0.0 
1.11633 -0.0296017 0.0 
-0.0429663 -0.242422 0.0 
0.976702 -0.0234793 0.0 
1.0843 0.042847 0.0 
0.887159 0.0778711 0.0 
1.04021 -0.0231201 0.0 
1.02954 -0.0984 0.0 
1.06694 -0.0957328 0.0 
0.87819 -0.0593346 0.0 
1.08657 -0.0730381 0.0 
1.0773 -0.0896355 0.0 
1.04385 -0.0970092 0.0 
-0.00986677 -0.191214 0.0 
0.246411 0.0692367 0.0 
0.660564 -0.0411485 0.0 
-0.0445221 -0.0760272 0.0 
1.03212 -0.0887544 0.0 
0.0374237 -0.158259 0.0 
0.786646 -0.0565798 0.0 
0.936752 0.0471859 0.0 
0.804171 -0.061117 0.0 
0.882402 -0.317558 0.0 
0.934284 -0.306176 0.0 
0.017561 0.124705 0.0 
0.443509 -0.248664 0.0 
0.865461 -0.0569419 0.0 
0.868287 -0.0614151 0.0 
0.228163 0.0636654 0.0 
0.188568 -0.049842 0.0 
0.491302 -0.261859 0.0 
0.40639 -0.226662 0.0 
0.0275056 0.122006 0.0 
0.705582 -0.298394 0.0 
0.164361 -0.0905574 0.0 
0.977009 -0.0858388 0.0 
1.00469 0.0759464 0.0 
0.97857 -0.248358 0.0 
0.194432 -0.00431006 0.0 
0.956181 0.0414165 0.0 
0.111181 0.0891407 0.0 
0.260462 -0.156461 0.0 
0.254371 -0.0761984 0.0 
0.530401 -0.279424 0.0 
1.07252 -0.0791896 0.0 
1.00798 -0.250248 0.0 
0.920479 -0.295158 0.0 
0.854194 -0.312147 0.0 
0.845094 -0.0522511 0.0 
0.488559 -0.263662 0.0 
0.200739 0.00730576 0.0 
0.128584 0.0873554 0.0 
0.429686 -0.242194 0.0 
0.0292313 -0.213863 0.0 
0.807518 -0.322436 0.0 
0.0452605 -0.208273 0.0 
0.98502 -0.089229 0.0 
0.398167 -0.226542 0.0 
1.0261 0.0710591 0.0 
0.552387 -0.279891 0.0 
0.503254 -0.261885 0.0 
0.0654051 -0.200423 0.0 
0.155478 0.0790619 0.0 
0.153413 -0.107449 0.0 
0.018931 -0.216562 0.0 
1.08109 -0.0830408 0.0 
0.106825 -0.157921 0.0 
0.25109 0.0645048 0.0 
0.256512 0.0463336 0.0 
-0.00775417 -0.226803 0.0 
0.29846 0.0559464 0.0 
0.802089 -0.0444687 0.0 
0.884245 0.0832976 0.0 
0.248944 -0.149317 0.0 
-0.0618815 -0.070977 0.0 
0.538328 -0.28527 0.0 
0.82381 -0.0549889 0.0 
1.06836 0.0545195 0.0 
0.0148137 -0.219299 0.0 
0.220064 0.0578083 0.0 
-0.0353301 -0.194884 0.0 
-0.0346371 -0.237806 0.0 
0.295337 0.0303 0.0 
-0.0348516 -0.24098 0.0 
1.06927 -0.0320576 0.0 
0.269601 0.0481859 0.0 
0.956423 -0.247114 0.0 
0.00786414 -0.0223867 0.0 
1.09056 -0.141664 0.0 
0.125675 -0.115728 0.0 
-0.05783 -0.241318 0.0 
0.183516 -0.14761 0.0 
-0.00591521 -0.101861 0.0 
-0.0332819 -0.0948762 0.0 
-0.0125611 -0.105434 0.0 
-0.00411055 -0.228196 0.0 
0.785769 -0.329175 0.0 
0.110665 0.10344 0.0 
0.524756 -0.278901 0.0 
1.09545 0.0163783 0.0 
0.00387348 -0.223697 0.0 
0.167529 -0.10531 0.0 
0.96369 -0.262349 0.0 
0.597732 -0.281672 0.0 
0.085133 -0.150998 0.0 
0.278849 0.0299895 0.0 
-0.113763 -0.023433 0.0 
-0.0300851 -0.0909666 0.0 
-0.0335939 -0.238042 0.0 
0.268109 0.0633387 0.0 
0.899254 0.0739687 0.0 
0.727725 -0.324637 0.0 
0.939502 -0.301079 0.0 
1.04411 -0.255763 0.0 
-0.0864009 -0.0473168 0.0 
-0.00462233 -0.0971866 0.0 
0.866351 -0.317145 0.0 
1.02314 0.0719172 0.0 
0.0160915 -0.219823 0.0 
1.08428 0.0318722 0.0 
0.678925 -0.319292 0.0 
1.11151 0.00453483 0.0 
0.180338 0.0178513 0.0 
0.271348 0.0628739 0.0 
0.272638 0.0534448 0.0 
-0.000278113 -0.0785499 0.0 
0.0394547 -0.0796997 0.0 
-0.0180038 -0.10031 0.0 
0.339549 -0.20061 0.0 
0.270651 0.0634819 0.0 
-0.00937787 -0.112058 0.0 
0.0156095 -0.106631 0.0 
-0.00502901 -0.115121 0.0 
-0.0326587 -0.0965884 0.0 
-0.0576191 -0.0769713 0.0 
0.802875 -0.0398644 0.0 
0.398599 -0.0464572 0.0 
0.167034 -0.0491863 0.0 
0.49247 -0.267599 0.0 
0.741568 -0.304786 0.0 
-0.0799038 -0.0599426 0.0 
0.461336 -0.0783753 0.0 
0.312204 -0.183406 0.0 
0.792138 -0.0673406 0.0 
0.92606 -0.0750358 0.0 
0.232755 0.0722103 0.0 
-0.0389231 -0.212289 0.0 
0.205789 -0.0266461 0.0 
0.128175 0.0989668 0.0 
-0.00105719 0.128196 0.0 
0.235059 -0.0229022 0.0 
-0.00687606 -0.227042 0.0 
0.860442 -0.0617698 0.0 
0.549827 -0.0565192 0.0 
1.05278 -0.111475 0.0 
1.10827 -0.0483924 0.0 
0.279792 -0.00940875 0.0 
-0.0259397 -0.238289 0.0 
0.00546722 -0.224566 0.0 
1.11722 -0.0439253 0.0 
-0.0167328 -0.216277 0.0 
0.248588 0.0686584 0.0 
-0.0293887 -0.232567 0.0 
0.271149 -0.106019 0.0 
0.431186 -0.0621484 0.0 
-0.0118418 -0.232146 0.0 
0.215746 0.0728724 0.0 
-0.0523268 -0.23718 0.0 
0.620977 -0.308201 0.0 
-0.00843709 -0.220569 0.0 
0.250762 -0.0407489 0.0 
-0.00227596 -0.197507 0.0 
0.853204 -0.0720947 0.0 
0.204534 -0.101923 0.0 
0.0819962 -0.193927 0.0 
0 0 0.0 
0.0835152 0.109761 0.0 
-0.0497516 -0.218634 0.0 
0.0331688 -0.185789 0.0 
0.834836 -0.324512 0.0 
-0.0539015 -0.243722 0.0 
0.819159 -0.0436824 0.0 
-0.048159 -0.242527 0.0 
0.95685 0.0487895 0.0 
0.592721 -0.294123 0.0 
1.08892 -0.118039 0.0 
0.189997 -0.134987 0.0 
0.123611 -0.176538 0.0 
0.250364 -0.00494417 0.0 
0.215915 0.0150138 0.0 
0.17401 -0.154493 0.0 
0.44287 -0.24077 0.0 
0.138359 0.0327342 0.0 
0.109669 -0.180647 0.0 
0.145028 -0.0729899 0.0 
1.03677 0.00810041 0.0 
0.525905 -0.0685452 0.0 
0.121523 -0.0785694 0.0 
0.510676 -0.0710533 0.0 
0.296149 0.0573336 0.0 
0.13483 -0.167881 0.0 
0.841927 -0.0543256 0.0 
0.0816079 -0.133975 0.0 
-0.024403 -0.2104 0.0 
0.473278 -0.0705243 0.0 
0.195494 -0.110247 0.0 
0.266533 0.0614639 0.0 
0.358953 -0.0766924 0.0 
1.01399 0.0738203 0.0 
1.06245 -0.110118 0.0 
1.035 0.0685113 0.0 
-0.0502562 -0.247878 0.0 
0.997898 -0.279656 0.0 
0.0593562 -0.147875 0.0 
0.722251 -0.0658695 0.0 
-0.00542162 -0.171007 0.0 
1.0476 -0.0692755 0.0 
0.0583824 -0.179055 0.0 
0.112565 -0.137286 0.0 
0.150649 -0.163942 0.0 
0.909757 0.055385 0.0 
0.23414 -0.103051 0.0 
-0.0529922 -0.246667 0.0 
1.01984 -0.27223 0.0 
0.754601 -0.0334774 0.0 
-0.0243421 -0.236926 0.0 
0.206644 -0.100863 0.0 
0.646973 -0.295737 0.0 
-0.0420889 -0.245534 0.0 
0.0809737 -0.168485 0.0 
-0.0264764 -0.186957 0.0 
0.140565 0.01533 0.0 
0.834053 -0.0523703 0.0 
0.059554 -0.132576 0.0 
0.0516713 -0.198337 0.0 
1.1131 -0.0232228 0.0 
0.25157 -0.131301 0.0 
0.0419018 -0.175307 0.0 
0.970845 0.063589 0.0 
-0.0237922 -0.224733 0.0 
0.917356 -0.0796833 0.0 
-0.00512948 -0.228713 0.0 
0.0113493 -0.22221 0.0 
-0.0469333 -0.241746 0.0 
0.250034 -0.0555977 0.0 
0.957364 -0.277496 0.0 
1.06095 -0.10585 0.0 
-0.0359178 -0.242651 0.0 
-0.0424569 -0.244402 0.0 
0.0968529 -0.180856 0.0 
0.231912 -0.0497713 0.0 
0.188115 -0.0915685 0.0 
0.0780295 -0.191929 0.0 
0.722771 -0.317689 0.0 
0.984436 -0.28575 0.0 
-0.00979654 -0.209533 0.0 
0.270821 0.0242054 0.0 
0.222252 -0.138081 0.0 
0.198389 -0.146 0.0 
0.1729 -0.0765322 0.0 
-0.0571216 -0.230922 0.0 
0.0948806 -0.18551 0.0 
1.00512 -0.0927397 0.0 
0.112742 -0.104059 0.0 
0.966451 -0.294455 0.0 
0.79828 -0.0471806 0.0 
-0.0472718 -0.244828 0.0 
-0.0556924 -0.241248 0.0 
0.146228 -0.129667 0.0 
0.974654 -0.0938506 0.0 
1.07918 -0.119195 0.0 
0.212936 -0.0415694 0.0 
-0.0368253 -0.229438 0.0 
0.866823 -0.0610344 0.0 
0.0999097 -0.186585 0.0 
1.10417 -0.066129 0.0 
-0.0611775 -0.237421 0.0 
-0.0588309 -0.237911 0.0 
0.230768 -0.0781937 0.0 
0.280907 0.0580916 0.0 
0.00589888 -0.203765 0.0 
0.275557 -0.0254937 0.0 
-0.0469942 -0.246836 0.0 
1.0667 -0.10904 0.0 
-0.0427953 -0.235889 0.0 
0.605724 -0.291515 0.0 
-0.0553296 -0.244225 0.0 
0.176252 -0.104487 0.0 
0.713119 -0.0900924 0.0 
-0.000145302 -0.213554 0.0 
0.0570521 -0.164729 0.0 
-0.0473165 -0.230618 0.0 
0.245519 0.0626482 0.0 
0.364319 -0.209275 0.0 
0.0307181 -0.213719 0.0 
0.0346186 -0.169148 0.0 
0.217884 0.0447751 0.0 
0.912764 -0.310794 0.0 
0.057883 -0.100185 0.0 
0.00760472 0.127214 0.0 
0.683068 -0.314886 0.0 
0 0 0.0 
0.0344908 -0.139168 0.0 
0.207497 -0.0675767 0.0 
0.281815 -0.0420891 0.0 
0.881718 -0.320296 0.0 
1.04018 -0.107367 0.0 
-0.0518061 -0.24571 0.0 
0.217519 -0.0828886 0.0 
0.936794 -0.283524 0.0 
0.2614 -0.0335867 0.0 
0.215968 -0.0917282 0.0 
-0.0465328 -0.246177 0.0 
0.120497 0.0173328 0.0 
0.947414 -0.0790054 0.0 
0.0563167 -0.202188 0.0 
0.0701247 -0.158455 0.0 
0.300082 0.0565771 0.0 
0.81776 -0.0442187 0.0 
0.295613 0.00255404 0.0 
0.228501 -0.0603058 0.0 
0.877596 -0.0595335 0.0 
0.271777 -0.0702411 0.0 
0.458845 -0.0790744 0.0 
0.92493 -0.302805 0.0 
0.0468806 0.118393 0.0 
0.173535 -0.00544721 0.0 
0.27515 0.010829 0.0 
0.943517 0.0380595 0.0 
0.907624 -0.280342 0.0 
0.339113 0.0222805 0.0 
1.00508 -0.20092 0.0 
0.984837 -0.289763 0.0 
0.0787439 0.108593 0.0 
0.880786 -0.286847 0.0 
0.105737 0.103721 0.0 
0.787452 -0.0353861 0.0 
0 0 0.0 
1.05197 -0.0553458 0.0 
0.209908 -0.0533166 0.0 
0.812606 -0.327499 0.0 
0.0874426 0.103019 0.0 
0.803304 -0.0635196 0.0 
0.39089 -0.0788414 0.0 
0.996161 -0.249597 0.0 
0.383063 -0.083184 0.0 
0.354064 -0.0497422 0.0 
0.832949 -0.0720607 0.0 
0.412422 -0.234042 0.0 
1.06881 -0.226996 0.0 
1.03008 -0.262503 0.0 
0.975463 0.00967206 0.0 
0.304267 0.0544995 0.0 
0.923997 -0.0601325 0.0 
0.875054 -0.0392335 0.0 
0.887541 -0.0771476 0.0 
0.0349499 -0.207323 0.0 
0 0 0.0 
0.150736 -0.00685061 0.0 
0.925748 -0.0123428 0.0 
0.129542 0.0670749 0.0 
1.03473 -0.0983432 0.0 
0.00275034 -0.180565 0.0 
0.182798 -0.0633601 0.0 
-0.0441004 -0.249563 0.0 
0.872609 -0.0761737 0.0 
0.0613593 -0.201751 0.0 
0.0763978 -0.111919 0.0 
0.222097 -0.0267712 0.0 
0.885674 -0.301572 0.0 
0.245589 -0.152863 0.0 
0.155599 0.0603836 0.0 
-0.0436983 -0.202618 0.0 
0.138488 0.0039212 0.0 
0.182935 -0.114319 0.0 
0.894322 -0.0581561 0.0 
0.619935 -0.0627351 0.0 
0.119754 -0.167276 0.0 
1.08792 -0.0438081 0.0 
-0.0195214 -0.172802 0.0 
0.194961 -0.0615559 0.0 
0.130969 0.0275386 0.0 
0.33796 -0.0832521 0.0 
0.188977 0.0365152 0.0 
0.680807 -0.071161 0.0 
0.100108 -0.02859 0.0 
0.108718 0.0710725 0.0 
-0.0143702 -0.202194 0.0 
0.161542 0.0463863 0.0 
0.643072 -0.303598 0.0 
0.167421 -0.141437 0.0 
0.137041 0.0762101 0.0 
0.0295156 -0.214616 0.0 
0.144894 0.0563501 0.0 
0.0576195 -0.145895 0.0 
0.052527 -0.14626 0.0 
0.132799 0.0518485 0.0 
0 0 0.0 
0.418656 -0.0734808 0.0 
0.147667 -0.0200626 0.0 
0.465175 -0.0159886 0.0 
0.284347 -0.0246554 0.0 
0.168938 -0.0335216 0.0 
0.924698 0.0629872 0.0 
0.155712 0.0219623 0.0 
0.942562 -0.29788 0.0 
0.0979213 -0.0786447 0.0 
0.00830438 -0.0111813 0.0 
9.40334e-05 -0.158753 0.0 
0.0882159 0.0980116 0.0 
0.757367 -0.0383298 0.0 
0.2346 -0.14556 0.0 
0.755259 -0.316853 0.0 
0.150504 -0.0956563 0.0 
0.108956 -0.0494665 0.0 
0.0852963 0.0100221 0.0 
0.887118 0.0338323 0.0 
0.223316 -0.138463 0.0 
0.156502 0.0057753 0.0 
0.397046 0.00146994 0.0 
0.171389 0.0309159 0.0 
0.339322 -0.0874058 0.0 
0.109212 0.013119 0.0 
1.04068 0.0664734 0.0 
0.10711 -0.170651 0.0 
0.976338 0.0583008 0.0 
0.606385 -0.143554 0.0 
0.209621 -0.0147836 0.0 
-0.050686 -0.225421 0.0 
0.246464 -0.0948661 0.0 
0.764844 -0.0679189 0.0 
0.669043 -0.318348 0.0 
1.02126 -0.0958271 0.0 
1.07261 -0.10848 0.0 
0.519481 -0.0527677 0.0 
0 0 0.0 
0.0382917 -0.144085 0.0 
0.557413 -0.276712 0.0 
1.00253 -0.26835 0.0 
-0.0260123 -0.178573 0.0 
-0.0456885 0.109451 0.0 
0.835443 -0.324457 0.0 
0.935759 -0.252542 0.0 
0.641781 -0.0426037 0.0 
0.192712 -0.0343086 0.0 
0.7097 -0.116882 0.0 
0.146488 0.0383865 0.0 
-0.0405861 -0.250743 0.0 
0.186621 0.0498124 0.0 
0.356529 -0.203192 0.0 
0.652199 -0.0357523 0.0 
0.331189 -0.08769 0.0 
0.389687 -0.0579021 0.0 
0.0964889 0.0105978 0.0 
0.912421 0.0492464 0.0 
0.0296537 -0.197301 0.0 
0.686457 -0.301252 0.0 
0.767035 -0.0679505 0.0 
0.956538 -0.30059 0.0 
0.134314 -0.152559 0.0 
0.162933 -0.0630595 0.0 
0.80798 -0.0428404 0.0 
0.684035 -0.308114 0.0 
0.8571 -0.0615847 0.0 
0.737483 -0.0506973 0.0 
1.04933 0.0632799 0.0 
0.483268 -0.0644104 0.0 
1.1188 -0.0333243 0.0 
0.973955 -0.294449 0.0 
0.104814 0.0994083 0.0 
0.117742 -0.0681386 0.0 
1.03698 -0.103505 0.0 
0.65026 -0.0298155 0.0 
0.949752 -0.289431 0.0 
1.05539 -0.123713 0.0 
0.997331 -0.265223 0.0 
1.01671 -0.263402 0.0 
1.02617 -0.260654 0.0 
0.233936 -0.0395395 0.0 
0.968043 -0.282219 0.0 
0.0529115 -0.117641 0.0 
0.693732 -0.275227 0.0 
0.807413 -0.0703029 0.0 
0.169319 0.0666563 0.0 
0.516576 -0.0227146 0.0 
0.124816 -0.167243 0.0 
0.0210622 -0.140641 0.0 
1.06118 -0.0750736 0.0 
0.0647246 -0.148636 0.0 
0.611416 -0.277954 0.0 
0.621959 -0.0610579 0.0 
-0.0535101 -0.238908 0.0 
0.248083 0.0391046 0.0 
0.0481715 -0.207266 0.0 
0.757913 -0.326046 0.0 
0.965331 -0.0360347 0.0 
-0.0340395 -0.169699 0.0 
0.93697 -0.0883258 0.0 
0.430144 -0.0663681 0.0 
0.243873 -0.0879369 0.0 
1.06552 -0.128335 0.0 
0.0101113 -0.191125 0.0 
0.401515 -0.0718388 0.0 
-0.0092288 0.130744 0.0 
1.07438 -0.220275 0.0 
0.825386 -0.050921 0.0 
0.937911 -0.0750248 0.0 
0.597065 -0.105719 0.0 
0.389612 -0.0558226 0.0 
0.853439 -0.324123 0.0 
1.09253 0.0361482 0.0 
1.01328 -0.256661 0.0 
1.05398 -0.116544 0.0 
0.0876925 0.0863544 0.0 
0.0718409 -0.192649 0.0 
0.709031 -0.0375842 0.0 
0.828377 -0.321377 0.0 
0.303288 -0.0753405 0.0 
0.181453 0.0722754 0.0 
0.929557 -0.0763229 0.0 
0.743076 -0.0869626 0.0 
1.0804 -0.184965 0.0 
0.671292 -0.0269384 0.0 
1.07114 -0.0573834 0.0 
0.55536 -0.0300601 0.0 
0.194491 0.0223655 0.0 
0.486764 -0.111302 0.0 
0.125167 -0.0220293 0.0 
0.766782 -0.325489 0.0 
1.03887 -0.101919 0.0 
1.10029 0.0271076 0.0 
0.968027 -0.218204 0.0 
0.09589 0.0898479 0.0 
1.04751 -0.241114 0.0 
0.942801 -0.0719889 0.0 
0.818122 -0.0763323 0.0 
0.829211 -0.0605626 0.0 
0.787138 -0.0522677 0.0 
0.701162 -0.0263155 0.0 
0.992496 0.0646646 0.0 
0.878143 0.0470335 0.0 
0.716447 -0.308617 0.0 
0.184981 -0.089344 0.0 
1.01011 -0.117006 0.0 
0.97558 -0.187282 0.0 
0.86198 -0.207232 0.0 
0.798999 -0.0693568 0.0 
0.128539 -0.0901406 0.0 
1.08815 -0.129917 0.0 
0.804275 -0.214414 0.0 
0.0535765 -0.114533 0.0 
1.05298 -0.219048 0.0 
0.841817 -0.0498014 0.0 
0.0875885 0.0804271 0.0 
0.695279 -0.0447829 0.0 
0.0899279 0.106871 0.0 
1.07952 -0.165762 0.0 
0.0852435 -0.119143 0.0 
0.0389036 -0.209337 0.0 
0.803602 -0.176977 0.0 
0.886495 -0.06451 0.0 
0.522401 -0.0467733 0.0 
0.868867 0.0798081 0.0 
0.708011 -0.053112 0.0 
1.07373 -0.143991 0.0 
1.08671 -0.112658 0.0 
0.598574 -0.0685148 0.0 
0.435215 -0.0695594 0.0 
0.686111 -0.0475918 0.0 
1.05482 0.0215585 0.0 
0.0203468 -0.179426 0.0 
1.03134 -0.109039 0.0 
1.07468 -0.217227 0.0 
0 0 0.0 
0.214783 0.0310994 0.0 
0.900895 -0.153669 0.0 
1.06878 0.0523838 0.0 
0.129599 -0.0568247 0.0 
0.938102 -0.270244 0.0 
0.597712 -0.23003 0.0 
0.988824 -0.0769831 0.0 
0.97728 -0.272205 0.0 
1.06615 -0.23269 0.0 
1.00962 -0.278017 0.0 
0.0573372 -0.131303 0.0 
0.944998 -0.0660977 0.0 
0.665498 -0.0877257 0.0 
0.808226 -0.160103 0.0 
0.49296 -0.0852711 0.0 
0.90349 -0.0767097 0.0 
1.04372 -0.198248 0.0 
0.860159 -0.0848405 0.0 
1.08443 -0.169403 0.0 
1.09268 -0.175491 0.0 
0.934876 -0.075024 0.0 
1.08551 -0.116942 0.0 
1.04972 -0.139795 0.0 
1.11485 -0.0116729 0.0 
0.99061 -0.231614 0.0 
1.07341 -0.215863 0.0 
0.96843 -0.121808 0.0 
0.915094 -0.0429288 0.0 
1.01725 -0.101582 0.0 
1.08218 -0.00599024 0.0 
0.0848094 0.0770711 0.0 
1.02475 -0.132287 0.0 
0.366804 -0.0880845 0.0 
1.06469 -0.228473 0.0 
0.822328 -0.065104 0.0 
0.100212 -0.120041 0.0 
0.241595 -0.0958442 0.0 
0.872955 -0.0784285 0.0 
0.442378 -0.0127329 0.0 
0.0360285 -0.130501 0.0 
1.0229 -0.0992623 0.0 
0.46948 -0.027144 0.0 
0.189695 -0.126005 0.0 
1.05341 -0.188637 0.0 
0.896078 -0.0802206 0.0 
0.953516 0.0339468 0.0 
1.05774 -0.110828 0.0 
0.832819 -0.0676063 0.0 
1.07456 -0.112644 0.0 
0.635136 -0.10069 0.0 
1.04838 -0.24564 0.0 
0.347755 -0.204704 0.0 
0.911015 -0.305995 0.0 
0 0 0.0 
0 0 0.0 
0.801831 -0.0703467 0.0 
0.854199 -0.311579 0.0 
0.562949 -0.289938 0.0 
1.02904 -0.0360799 0.0 