<VTKFile type="UnstructuredGrid" version="0.1" byte_order="LittleEndian">
  <UnstructuredGrid>
    <Piece NumberOfPoints="14189" NumberOfCells="27720">
      <Points>
        <DataArray type = "Float64" NumberOfComponents="3" format="ascii">
2.54898 0.985639 0.0 
1.21183 0.761581 0.0 
2.71561 0.979118 0.0 
1.32475 0.962805 0.0 
1.14691 0.777539 0.0 
1.85137 0.998639 0.0 
1.20344 0.942328 0.0 
1.21663 0.942231 0.0 
1.34172 0.964659 0.0 
1.55461 0.984095 0.0 
1.2556 0.726071 0.0 
1.46567 0.97177 0.0 
1.45231 0.943373 0.0 
1.3101 0.90166 0.0 
1.93802 0.990818 0.0 
1.1715 0.955469 0.0 
2.81019 0.944288 0.0 
2.34103 0.943913 0.0 
2.84731 0.93958 0.0 
2.3815 0.937212 0.0 
2.19372 0.954984 0.0 
1.27763 0.951119 0.0 
1.3904 0.982658 0.0 
2.08269 0.955309 0.0 
1.37327 0.956821 0.0 
2.20041 0.986398 0.0 
1.48752 0.959179 0.0 
2.21176 0.958255 0.0 
1.3696 0.648013 0.0 
2.45146 0.96367 0.0 
2.91984 0.956176 0.0 
2.1285 0.960364 0.0 
1.44335 0.989532 0.0 
1.14101 0.806936 0.0 
1.29349 0.948964 0.0 
3.18159 0.966054 0.0 
2.92171 0.977721 0.0 
3.05919 0.916707 0.0 
1.27516 0.949341 0.0 
1.17411 0.953305 0.0 
3.30316 0.965602 0.0 
2.46153 0.9601 0.0 
2.26747 0.956229 0.0 
2.65395 0.966019 0.0 
2.68867 0.967225 0.0 
2.04183 0.9594 0.0 
2.14824 0.957597 0.0 
2.38782 0.951008 0.0 
3.09562 0.970423 0.0 
2.69087 0.930555 0.0 
2.51336 0.951892 0.0 
2.62233 0.969246 0.0 
2.26343 0.960814 0.0 
1.16283 0.951903 0.0 
1.2283 0.94128 0.0 
2.31904 0.958577 0.0 
2.35887 0.965068 0.0 
3.02124 0.921893 0.0 
2.16615 0.943798 0.0 
2.22447 0.949415 0.0 
2.99068 0.950546 0.0 
1.22713 0.856278 0.0 
1.18415 0.829448 0.0 
2.78734 0.969 0.0 
1.98103 0.91991 0.0 
1.96309 0.951343 0.0 
1.29884 0.971945 0.0 
1.58289 0.94528 0.0 
3.5 0.959877 0.0 
1.37927 0.975323 0.0 
2.84993 0.964298 0.0 
1.39442 0.978313 0.0 
1.52678 0.96291 0.0 
2.80751 0.971392 0.0 
3.02206 0.932661 0.0 
2.83366 0.960254 0.0 
2.02645 0.956582 0.0 
3.12844 0.93797 0.0 
1.58333 0.955713 0.0 
2.15711 0.951164 0.0 
1.98516 0.954252 0.0 
2.04397 0.942717 0.0 
2.18591 0.961653 0.0 
2.55104 0.960838 0.0 
1.38835 0.967551 0.0 
1.42859 0.986469 0.0 
2.76561 0.957096 0.0 
3.21811 0.94601 0.0 
2.3262 0.953517 0.0 
2.02307 0.94544 0.0 
3.36356 0.960388 0.0 
2.53876 0.947772 0.0 
2.52688 0.965781 0.0 
2.2639 0.937796 0.0 
2.62104 0.936236 0.0 
1.19304 0.927622 0.0 
1.2839 0.955967 0.0 
2.30708 0.963688 0.0 
1.52193 0.987308 0.0 
3.19785 0.972451 0.0 
1.51399 0.940466 0.0 
2.90919 0.914078 0.0 
3.43653 0.923754 0.0 
1.21046 0.895567 0.0 
2.70088 0.957128 0.0 
3.27805 0.93309 0.0 
1.18302 0.953105 0.0 
1.20575 0.95823 0.0 
1.51445 0.983024 0.0 
2.83911 0.954696 0.0 
3.11254 0.950072 0.0 
2.00452 0.966325 0.0 
1.26291 0.652738 0.0 
1.52389 0.953731 0.0 
2.82283 0.911747 0.0 
2.40833 0.96303 0.0 
2.2294 0.96533 0.0 
2.06602 0.947986 0.0 
2.65308 0.926855 0.0 
1.64864 0.992633 0.0 
1.29922 0.970647 0.0 
2.4513 0.9552 0.0 
2.31492 0.967058 0.0 
2.50952 0.957713 0.0 
3.20466 0.921684 0.0 
2.79536 0.965365 0.0 
2.58943 0.950494 0.0 
2.76184 0.97149 0.0 
3.02655 0.940999 0.0 
2.48096 0.968926 0.0 
1.24114 0.947818 0.0 
1.66988 0.914391 0.0 
3.36515 0.91122 0.0 
2.73453 0.946259 0.0 
2.51922 0.969549 0.0 
2.46039 0.946001 0.0 
2.03423 0.938981 0.0 
2.57073 0.955799 0.0 
1.88382 0.984142 0.0 
2.41541 0.959175 0.0 
2.00493 0.950047 0.0 
1.25531 0.941253 0.0 
3.25643 0.939721 0.0 
3.04742 0.936502 0.0 
1.99661 0.959477 0.0 
2.75158 0.932461 0.0 
1.18162 0.956686 0.0 
2.92519 0.940056 0.0 
2.65815 0.947276 0.0 
2.50781 0.962471 0.0 
3.04038 0.9465 0.0 
2.58564 0.966831 0.0 
2.51027 0.92622 0.0 
2.26066 0.946127 0.0 
1.82672 0.999874 0.0 
2.13302 0.954115 0.0 
3.36389 0.925402 0.0 
1.22576 0.936865 0.0 
2.46955 0.966068 0.0 
1.94592 0.959437 0.0 
3.5 0.940184 0.0 
2.22991 0.981177 0.0 
3.25056 0.962562 0.0 
2.71368 0.974136 0.0 
2.17048 0.984804 0.0 
3.5 0.912642 0.0 
2.39247 0.941382 0.0 
2.08875 0.945145 0.0 
1.49814 0.951513 0.0 
2.84504 0.970992 0.0 
2.13698 0.983298 0.0 
1.57258 0.928871 0.0 
2.38409 0.956253 0.0 
2.07733 0.951828 0.0 
3.15059 0.926589 0.0 
2.42606 0.933215 0.0 
2.41393 0.947663 0.0 
1.88417 0.987257 0.0 
2.45474 0.950022 0.0 
1.33434 0.96514 0.0 
1.5146 0.964164 0.0 
2.72948 0.915912 0.0 
1.27289 0.955965 0.0 
2.60539 0.931477 0.0 
3.38167 0.935166 0.0 
2.63516 0.921259 0.0 
2.95845 0.9452 0.0 
3.40085 0.918018 0.0 
1.26846 0.943875 0.0 
2.66138 0.959436 0.0 
2.08792 0.958532 0.0 
1.49433 0.985485 0.0 
1.5244 0.94469 0.0 
2.36171 0.926891 0.0 
1.16552 0.744871 0.0 
2.15853 0.965555 0.0 
2.01149 0.983364 0.0 
2.03314 0.973816 0.0 
2.075 0.961722 0.0 
2.58155 0.963665 0.0 
1.5953 0.977569 0.0 
1.12063 0.817571 0.0 
2.0044 0.972404 0.0 
2.92924 0.925028 0.0 
1.25287 0.950475 0.0 
1.31415 0.875511 0.0 
3.25375 0.957568 0.0 
1.92136 0.987241 0.0 
2.36599 0.960963 0.0 
2.47648 0.938712 0.0 
2.82901 0.974239 0.0 
2.74802 0.965538 0.0 
2.99155 0.97204 0.0 
1.47889 0.981246 0.0 
2.56167 0.936706 0.0 
1.41176 0.98292 0.0 
1.29964 0.951513 0.0 
2.08041 0.934667 0.0 
1.25173 0.961753 0.0 
2.70739 0.962714 0.0 
2.87316 0.934638 0.0 
2.29239 0.983505 0.0 
2.64778 0.954009 0.0 
1.91542 0 0.0 
2.83014 0.977706 0.0 
1.1536 0.949122 0.0 
1.31333 0.939033 0.0 
1.15866 0.858978 0.0 
1.34509 0.977626 0.0 
2.88222 0.975957 0.0 
2.28107 0.941375 0.0 
3.04635 0.9275 0.0 
1.536 0.956189 0.0 
1.50145 0.977623 0.0 
2.86781 0.920251 0.0 
1.31514 0.959267 0.0 
2.80463 0.935349 0.0 
3.00375 0.913401 0.0 
2.9625 0.936145 0.0 
1.19314 0.952932 0.0 
1.12978 0.877315 0.0 
1.97785 0.947327 0.0 
2.75255 0.927805 0.0 
2.78752 0.939377 0.0 
2.10058 0.978269 0.0 
1.2464 0.960678 0.0 
1.4606 0.962887 0.0 
1.20041 0.705483 0.0 
1.67171 0.964422 0.0 
2.66731 0.970755 0.0 
1.94395 0.977437 0.0 
1.99734 0.978643 0.0 
2.8195 0.91684 0.0 
2.3967 0.930385 0.0 
2.37409 0.978496 0.0 
1.27062 0.957237 0.0 
2.41014 0.944427 0.0 
2.34794 0.976852 0.0 
1.93849 0.995656 0.0 
1.16102 0.908615 0.0 
1.30875 0.704254 0.0 
1.24573 0.918521 0.0 
2.76333 0.976428 0.0 
3.19621 0.934705 0.0 
1.53429 0.948526 0.0 
1.29782 0.956285 0.0 
2.59913 0.939997 0.0 
3.5 0.953889 0.0 
1.40747 0.98216 0.0 
2.16194 0.940155 0.0 
1.90066 0.985602 0.0 
1.6299 0.992159 0.0 
1.29462 0.954101 0.0 
2.0506 0.971444 0.0 
2.52885 0.930026 0.0 
2.88471 0.979114 0.0 
3.37215 0.940135 0.0 
1.41813 0.980075 0.0 
2.73599 0.981021 0.0 
1.32606 0.970789 0.0 
2.10013 0.970936 0.0 
2.03983 0.981744 0.0 
3.5 0.933302 0.0 
2.05308 0.983137 0.0 
1.19106 0.905296 0.0 
2.74375 0.936668 0.0 
1.27907 0.952279 0.0 
2.34746 0.968656 0.0 
2.94039 0.930824 0.0 
2.79176 0.950623 0.0 
1.44588 0.975094 0.0 
1.16386 0.95416 0.0 
2.71877 0.971766 0.0 
1.15921 0.826929 0.0 
3.5 0.919532 0.0 
3.39861 0.964888 0.0 
2.77497 0.973645 0.0 
2.56263 0.970539 0.0 
1.28596 0.944072 0.0 
2.39105 0.97047 0.0 
2.04298 0.978401 0.0 
2.8357 0.92996 0.0 
2.51475 0.94424 0.0 
1.27102 0.947541 0.0 
1.89274 0.939928 0.0 
2.68839 0.980931 0.0 
1.35457 0.938103 0.0 
1.9903 0.981988 0.0 
1.63233 0.961452 0.0 
1.81099 0.466112 0.0 
1.6817 0.994536 0.0 
3.28453 0.928237 0.0 
2.57933 0.977549 0.0 
2.33401 0.987293 0.0 
1.97057 0.973464 0.0 
1.17271 0.924748 0.0 
1.32936 0.963967 0.0 
3.42009 0.929407 0.0 
2.6766 0.977032 0.0 
2.21056 0.972432 0.0 
2.41079 0.980436 0.0 
1.50744 0.961022 0.0 
2.05969 0.974934 0.0 
1.4046 0.961998 0.0 
1.20477 0.904757 0.0 
2.20463 0.976615 0.0 
2.49543 0.976341 0.0 
2.40729 0.975714 0.0 
1.22374 0.957198 0.0 
2.28239 0.970371 0.0 
2.49354 0.947688 0.0 
1.49587 0.947321 0.0 
1.41671 0.981964 0.0 
1.95936 0.981767 0.0 
3.15618 0.915644 0.0 
2.4646 0.942654 0.0 
1.44451 0.978948 0.0 
2.32743 0.972292 0.0 
1.96271 0.968529 0.0 
2.68196 0.934426 0.0 
1.36941 0.940475 0.0 
2.1196 0.985596 0.0 
2.68825 0.942224 0.0 
2.74235 0.941075 0.0 
1.32572 0.793459 0.0 
1.18742 0.878885 0.0 
2.22873 0.983743 0.0 
2.10939 0.966327 0.0 
3.11365 0.932334 0.0 
2.53088 0.977664 0.0 
2.65705 0.938576 0.0 
2.88471 0.949331 0.0 
2.41008 0.96668 0.0 
3.34496 0.9303 0.0 
2.11602 0.972727 0.0 
1.37527 0.979982 0.0 
2.19053 0.974619 0.0 
2.44013 0.968879 0.0 
1.67091 0.977329 0.0 
2.14954 0.987116 0.0 
2.51021 0.972963 0.0 
1.17769 0.945741 0.0 
2.28764 0.974793 0.0 
1.61637 0.969814 0.0 
2.0693 0.980035 0.0 
1.52486 0.952271 0.0 
2.63772 0.975352 0.0 
2.63803 0.942624 0.0 
3.29032 0.917581 0.0 
1.16287 0.947351 0.0 
1.27622 0.953151 0.0 
1.37752 0.972058 0.0 
2.88317 0.943772 0.0 
3.20449 0.93041 0.0 
2.58362 0.944674 0.0 
1.28722 0.965897 0.0 
3.5 0.816928 0.0 
2.96507 0.91856 0.0 
3.29638 0.922697 0.0 
2.24505 0.974269 0.0 
1.4755 0.966071 0.0 
2.66255 0.973239 0.0 
3.13037 0.943558 0.0 
1.45111 0.971181 0.0 
2.50844 0.934049 0.0 
1.19017 0.954867 0.0 
2.70043 0.937998 0.0 
1.54302 0.994565 0.0 
1.11854 0.848313 0.0 
3.22813 0.925924 0.0 
1.9335 0.966443 0.0 
2.1786 0.968006 0.0 
2.15208 0.971133 0.0 
1.27031 0.952159 0.0 
1.26671 0.958179 0.0 
2.01052 0.976495 0.0 
2.75568 0.921994 0.0 
1.90962 0.969266 0.0 
2.35893 0.984906 0.0 
1.97733 0.961999 0.0 
1.53095 0.988198 0.0 
1.66652 0.978836 0.0 
1.26478 0.950645 0.0 
3.10637 0.92167 0.0 
1.61046 0.989277 0.0 
2.23849 0.931556 0.0 
2.05499 0.965748 0.0 
1.25817 0.95217 0.0 
1.96294 0.994834 0.0 
1.28907 0.96381 0.0 
1.51651 0.989831 0.0 
2.05471 0.988781 0.0 
2.29296 0.987086 0.0 
1.19445 0.891867 0.0 
1.313 0.951275 0.0 
1.49855 0.984371 0.0 
1.22322 0.944545 0.0 
1.41297 0.97352 0.0 
1.58625 0.981513 0.0 
1.31923 0.924204 0.0 
1.13818 0.830172 0.0 
2.29934 0.949966 0.0 
1.41013 0.970196 0.0 
1.35334 0.965487 0.0 
1.38937 0.977865 0.0 
1.30013 0.947568 0.0 
2.07622 0.968759 0.0 
1.78144 0.952547 0.0 
3.02818 0.955996 0.0 
1.19216 0.944494 0.0 
1.85529 0.99146 0.0 
2.22384 0.969559 0.0 
1.7515 0.954555 0.0 
1.19248 0.957121 0.0 
1.7897 0.992384 0.0 
1.2544 0.944305 0.0 
1.25673 0.948552 0.0 
1.70251 0.947692 0.0 
1.58915 0.968545 0.0 
1.28187 0.954048 0.0 
1.16886 0.884061 0.0 
1.22516 0.91391 0.0 
1.42548 0.949108 0.0 
2.26592 0.972463 0.0 
2.08447 0.984136 0.0 
1.89819 0.988695 0.0 
3.35074 0.945323 0.0 
1.15704 0.945224 0.0 
1.51794 0.968126 0.0 
[...]
<PointData>
  <DataArray type = "Float64" Name="Vitesse" NumberOfComponents="3" format="ascii">
0.763699 -0.00151194 0.0 
1.02012 -0.0127188 0.0 
0.776676 -0.000753932 0.0 
0.816541 0.0231964 0.0 
1.01809 -0.0219199 0.0 
0.738584 -0.0064342 0.0 
1.06553 0.00837074 0.0 
1.05844 0.0131383 0.0 
0.770772 0.0201978 0.0 
0.515263 -0.00327361 0.0 
1.01712 -0.00865314 0.0 
0.621097 0.00600233 0.0 
0.9946 0.00528311 0.0 
1.02362 0.0103527 0.0 
0.691948 -0.00410778 0.0 
1.04855 1.48545e-05 0.0 
0.917266 0.000367408 0.0 
0.932551 4.95599e-05 0.0 
0.936266 0.000278192 0.0 
0.960322 -0.000213117 0.0 
0.867653 0.000475798 0.0 
1.00406 0.0260225 0.0 
0.360097 0.00100959 0.0 
0.867769 0.00046599 0.0 
0.919379 0.0146753 0.0 
0.723309 -0.00221503 0.0 
0.869295 0.00531578 0.0 
0.842744 0.000495938 0.0 
1.01253 -0.00437306 0.0 
0.811603 0.000221471 0.0 
0.861231 0.000414103 0.0 
0.825546 0.000524775 0.0 
0.430595 -0.00900921 0.0 
1.0216 -0.0264433 0.0 
1.00754 0.0237859 0.0 
0.829955 0.000153983 0.0 
0.792693 -0.000477842 0.0 
0.99061 -0.000129587 0.0 
1.01429 0.025283 0.0 
1.06441 -0.000687016 0.0 
0.835337 0.000101777 0.0 
0.833136 0.000329166 0.0 
0.857548 0.000437046 0.0 
0.808436 9.41056e-05 0.0 
0.804999 2.84357e-05 0.0 
0.833616 0.000565017 0.0 
0.848033 0.000534339 0.0 
0.890638 0.000284135 0.0 
0.814732 4.87826e-06 0.0 
0.970898 -0.000146128 0.0 
0.882992 0.000344416 0.0 
0.793241 -8.16971e-05 0.0 
0.824303 0.00040946 0.0 
1.08137 -0.00945568 0.0 
1.05238 0.0163187 0.0 
0.84098 0.000370849 0.0 
0.799158 0.000144236 0.0 
0.982728 -5.75868e-05 0.0 
0.941237 -2.41575e-06 0.0 
0.90562 0.000289302 0.0 
0.887082 0.000443932 0.0 
1.03393 -0.00736416 0.0 
1.02972 -0.0187357 0.0 
0.803541 -1.3803e-05 0.0 
1.00451 -0.00103216 0.0 
0.905233 0.000324065 0.0 
0.51642 0.0231661 0.0 
0.977602 0.00099049 0.0 
0.856726 0.000294763 0.0 
0.487028 0.0101363 0.0 
0.823978 0.000248386 0.0 
0.432576 0.00607141 0.0 
0.805756 0.00431196 0.0 
0.797229 -0.000123928 0.0 
0.956265 0.000212494 0.0 
0.840948 0.000367403 0.0 
0.85872 0.000538252 0.0 
0.936634 0.000317136 0.0 
0.90103 0.00226411 0.0 
0.896567 0.000358733 0.0 
0.880395 0.000480965 0.0 
0.95347 -0.00019644 0.0 
0.816279 0.000480554 0.0 
0.830913 0.000278359 0.0 
0.702551 0.013196 0.0 
0.395514 -0.00520517 0.0 
0.854819 0.000399718 0.0 
0.905253 0.000409428 0.0 
0.875659 0.000352709 0.0 
0.940536 -4.37511e-05 0.0 
0.852645 0.000215449 0.0 
0.905719 0.000286975 0.0 
0.803459 7.62748e-05 0.0 
0.96303 -0.00025076 0.0 
0.95511 -5.58912e-05 0.0 
1.06428 -0.00316135 0.0 
0.955124 0.0279362 0.0 
0.805641 0.000265328 0.0 
0.494777 -0.00597252 0.0 
0.81519 -0.000115394 0.0 
0.99672 0.00228795 0.0 
0.996352 -0.000257409 0.0 
0.971125 0.000119002 0.0 
1.04688 -0.00556519 0.0 
0.853784 0.00033275 0.0 
0.949814 0.000229565 0.0 
1.05768 0.00469622 0.0 
0.967583 0.0208693 0.0 
0.488163 -0.00250745 0.0 
0.867444 0.000439617 0.0 
0.889176 0.000456051 0.0 
0.770058 0.000423247 0.0 
1.01274 -0.00752051 0.0 
0.929531 0.00338244 0.0 
0.999902 -0.00036126 0.0 
0.813771 0.000264353 0.0 
0.790928 0.000298453 0.0 
0.922473 0.000133349 0.0 
0.981196 -0.000293045 0.0 
0.61581 -0.00730929 0.0 
0.56356 0.0243203 0.0 
0.863534 0.00037592 0.0 
0.784813 8.27909e-05 0.0 
0.848326 0.000342627 0.0 
0.979424 -1.31619e-05 0.0 
0.817385 0.000172976 0.0 
0.890056 0.000324701 0.0 
0.794289 -0.000168737 0.0 
0.927134 0.000386554 0.0 
0.785789 -6.80609e-05 0.0 
1.03813 0.0227461 0.0 
1.0056 -0.00103882 0.0 
0.992988 -0.0001185 0.0 
0.909443 0.000316362 0.0 
0.785675 -0.000129256 0.0 
0.917387 0.000174499 0.0 
0.970021 -0.00042029 0.0 
0.860067 0.000356361 0.0 
0.655687 -0.00269104 0.0 
0.838148 0.000354529 0.0 
0.912032 0.00023301 0.0 
1.03925 0.0210337 0.0 
0.928403 0.000332179 0.0 
0.943198 0.000310078 0.0 
0.833204 0.000635 0.0 
0.963711 -4.51124e-06 0.0 
1.02071 0.00736491 0.0 
0.932691 0.000285884 0.0 
0.905856 0.000289967 0.0 
0.820362 0.000239627 0.0 
0.904539 0.000446467 0.0 
0.801415 6.4714e-05 0.0 
0.986341 -0.000455792 0.0 
0.924085 0.000152323 0.0 
0.747713 -0.00693663 0.0 
0.875749 0.000458596 0.0 
0.968811 0.000104579 0.0 
1.0534 0.0136017 0.0 
0.799142 0.000108369 0.0 
0.834323 0.000708349 0.0 
0.924586 0.000439496 0.0 
0.724025 -0.00137228 0.0 
0.842933 0.000228788 0.0 
0.784249 -0.000388335 0.0 
0.715963 -0.00203133 0.0 
0.989938 5.25695e-05 0.0 
0.942588 -4.34101e-05 0.0 
0.938231 -1.18547e-05 0.0 
0.951729 0.00382517 0.0 
0.80068 -9.49461e-05 0.0 
0.70915 -0.00187079 0.0 
1.00744 0.000647955 0.0 
0.85703 0.000341152 0.0 
0.895155 0.000329047 0.0 
0.969999 9.47388e-05 0.0 
0.971838 -0.000322718 0.0 
0.909703 0.000201844 0.0 
0.662166 -0.00353443 0.0 
0.895097 0.000282972 0.0 
0.757037 0.0213884 0.0 
0.784008 0.00477649 0.0 
0.997236 -0.000429898 0.0 
0.960577 0.0287448 0.0 
0.971 -0.00020217 0.0 
0.941812 0.00024091 0.0 
0.99197 -0.000450586 0.0 
0.910901 0.000402917 0.0 
0.982875 -1.30691e-05 0.0 
1.03087 0.0226548 0.0 
0.840959 0.000305519 0.0 
0.840853 0.000522304 0.0 
0.466005 -0.00453485 0.0 
0.984815 0.00219489 0.0 
0.989162 -0.000585226 0.0 
1.01642 -0.0169856 0.0 
0.7855 0.00032298 0.0 
0.685779 -0.00213596 0.0 
0.717053 -0.000417374 0.0 
0.813389 0.000516937 0.0 
0.816701 0.000210438 0.0 
0.579292 0.000169819 0.0 
1.01994 -0.0319186 0.0 
0.721817 -0.0001944 0.0 
0.978497 -4.38371e-05 0.0 
1.02119 0.0256454 0.0 
1.02313 0.00581387 0.0 
0.860398 0.000342339 0.0 
0.671768 -0.00334966 0.0 
0.825599 0.000300965 0.0 
0.950886 -6.16232e-05 0.0 
0.79177 -0.000282302 0.0 
0.814748 0.00013534 0.0 
0.806051 -0.000102529 0.0 
0.470508 -0.000463932 0.0 
0.955514 -5.6868e-05 0.0 
0.385689 -0.00022671 0.0 
0.99153 0.0241601 0.0 
0.981561 -0.000566589 0.0 
0.850049 0.0317495 0.0 
0.82572 0.00021923 0.0 
0.953547 0.000149083 0.0 
0.732578 -0.00165709 0.0 
0.870241 0.000360159 0.0 
1.01013 0 0.0 
0.786452 -0.000520218 0.0 
1.09373 -0.0189025 0.0 
1.01884 0.0184545 0.0 
1.03741 -0.0278561 0.0 
0.391246 0.0110008 0.0 
0.792239 -0.000408275 0.0 
0.947481 -7.01252e-05 0.0 
0.97006 9.86265e-05 0.0 
0.901974 0.00340029 0.0 
0.529936 0.00160608 0.0 
0.988698 -0.000176686 0.0 
0.892883 0.0244291 0.0 
0.952976 0.00014617 0.0 
0.995603 -0.000224822 0.0 
0.946326 0.000235122 0.0 
1.05008 0.0102472 0.0 
1.04099 -0.0433508 0.0 
0.932152 4.46067e-05 0.0 
0.976348 -0.00012243 0.0 
0.938484 0.000230998 0.0 
0.708809 -0.0010938 0.0 
0.881404 0.0312792 0.0 
0.810018 0.00720089 0.0 
1.01468 -0.0120879 0.0 
0.77786 0.00190758 0.0 
0.790702 -0.000172607 0.0 
0.683147 -0.000940953 0.0 
0.689687 -0.00122487 0.0 
0.994475 -0.000285726 0.0 
0.980502 -0.000445127 0.0 
0.745311 -0.00097259 0.0 
0.942461 0.0295033 0.0 
0.927251 8.57284e-05 0.0 
0.745627 -0.000809078 0.0 
0.726161 -0.00506876 0.0 
1.06191 -0.0269473 0.0 
1.01548 -0.00577533 0.0 
1.04195 0.010428 0.0 
0.783408 -0.000497027 0.0 
0.946311 0.000245783 0.0 
0.966746 0.00237776 0.0 
0.945357 0.0262559 0.0 
0.941317 5.76178e-05 0.0 
0.876473 0.000405427 0.0 
0.387512 0.000915716 0.0 
0.958578 -0.000195918 0.0 
0.662071 -0.0030204 0.0 
0.602267 -0.00746862 0.0 
0.972249 0.0258578 0.0 
0.734043 -0.000101677 0.0 
0.977223 -0.000328324 0.0 
0.789051 -0.000623625 0.0 
0.925569 0.000285738 0.0 
0.426397 0.0027571 0.0 
0.777344 -0.000879255 0.0 
0.579956 0.0202674 0.0 
0.743078 -6.76067e-05 0.0 
0.691891 -0.00176552 0.0 
0.946272 0.00035552 0.0 
0.694017 -0.0020121 0.0 
1.05456 -0.0108839 0.0 
0.949934 0.000109541 0.0 
0.995508 0.026458 0.0 
0.778009 -5.49135e-05 0.0 
0.963709 9.07169e-05 0.0 
0.887447 0.000427481 0.0 
0.540243 0.00544096 0.0 
1.069 -0.00637003 0.0 
0.790798 -0.000224371 0.0 
1.02761 -0.0247542 0.0 
0.979028 0.000160141 0.0 
0.840022 0.000133808 0.0 
0.789628 -0.000298776 0.0 
0.784635 -0.000153203 0.0 
1.02331 0.0224663 0.0 
0.772192 -0.000194704 0.0 
0.698696 -0.00114016 0.0 
0.968653 2.42225e-05 0.0 
0.924648 0.000175572 0.0 
1.02279 0.0243833 0.0 
0.974727 -0.000526053 0.0 
0.773589 -0.000923807 0.0 
1.01144 0.0138776 0.0 
0.681702 -0.00189564 0.0 
0.822164 0.00223321 0.0 
1.01075 -0.00103434 0.0 
0.649811 -0.00753535 0.0 
0.963146 0.000129762 0.0 
0.767269 -0.000701851 0.0 
0.74357 -0.00207728 0.0 
0.709938 -0.000235253 0.0 
1.06989 -0.0157418 0.0 
0.787651 0.0223641 0.0 
0.957953 0.000212315 0.0 
0.776116 -0.000635195 0.0 
0.746507 -0.000261942 0.0 
0.747179 -0.00114291 0.0 
0.838835 0.00480054 0.0 
0.715097 -0.000567373 0.0 
0.830647 0.0116612 0.0 
1.05098 -0.00532679 0.0 
0.729132 -0.00076039 0.0 
0.761876 -0.000683906 0.0 
0.754551 -0.000650788 0.0 
0.972764 0.0256336 0.0 
0.763893 -0.000121862 0.0 
0.907311 0.000249042 0.0 
0.977103 0.0034488 0.0 
0.400768 0.000718348 0.0 
0.675173 -0.00190195 0.0 
0.990354 -0.000122544 0.0 
0.934033 6.99857e-05 0.0 
0.468451 0.00264226 0.0 
0.758776 -0.00032564 0.0 
0.74724 0.00037948 0.0 
0.959521 -3.81552e-05 0.0 
1.00759 0.0123102 0.0 
0.708781 -0.00229564 0.0 
0.929091 0.000205362 0.0 
0.932671 0.000225183 0.0 
1.01891 -0.00195822 0.0 
1.04493 -0.0164136 0.0 
0.72388 -0.00175593 0.0 
0.776723 0.000313002 0.0 
0.955349 0.000216539 0.0 
0.76256 -0.000769625 0.0 
0.945298 5.30725e-05 0.0 
0.893016 0.00042565 0.0 
0.792627 8.48763e-05 0.0 
0.956606 0.000162757 0.0 
0.734214 -0.000275379 0.0 
0.378145 0.00548724 0.0 
0.734453 -0.000501696 0.0 
0.783296 -3.46786e-05 0.0 
0.611457 -0.000296322 0.0 
0.71712 -0.00246069 0.0 
0.772197 -0.000400879 0.0 
1.07897 -0.00371364 0.0 
0.745064 -0.000566538 0.0 
0.691699 0.00220965 0.0 
0.699478 -0.0014095 0.0 
0.942311 0.00314217 0.0 
0.775988 -0.000510712 0.0 
0.928673 0.000148829 0.0 
0.985229 -3.76881e-05 0.0 
1.08738 -0.0127128 0.0 
0.989918 0.0270288 0.0 
0.574862 0.0127168 0.0 
0.918228 0.000349471 0.0 
0.958951 0.00015821 0.0 
0.920638 0.000211238 0.0 
0.722784 0.0287818 0.0 
1.01091 -0.000267761 0.0 
0.989515 -0.000157642 0.0 
0.975774 4.34781e-05 0.0 
0.742245 -0.000493547 0.0 
0.7467 0.0064266 0.0 
0.782957 -0.000346981 0.0 
0.915743 0.000401951 0.0 
0.629308 0.00683933 0.0 
0.966424 -0.000213899 0.0 
1.03585 0.0104385 0.0 
0.946158 9.07637e-05 0.0 
0.584486 -0.0109107 0.0 
1.02598 -0.039664 0.0 
0.969886 6.76985e-05 0.0 
0.764353 0.000601752 0.0 
0.769424 0.000157194 0.0 
0.747426 -0.000106596 0.0 
1.00102 0.0267819 0.0 
0.92803 0.0302078 0.0 
0.700051 -0.000831847 0.0 
0.988198 -0.000266825 0.0 
0.735343 0.000394257 0.0 
0.742377 -0.00174201 0.0 
0.809253 0.000673965 0.0 
0.506665 -0.00652636 0.0 
0.598055 -0.00082668 0.0 
1.0135 0.026012 0.0 
0.981452 -3.39575e-06 0.0 
0.566833 -0.00623161 0.0 
0.983228 -0.000529272 0.0 
0.778126 0.000411297 0.0 
1.0079 0.0268822 0.0 
0.723931 -0.00469991 0.0 
0.788134 0.0289288 0.0 
0.507159 -0.00816895 0.0 
0.706103 -0.00312512 0.0 
0.737969 -0.00213326 0.0 
1.04874 -0.0120209 0.0 
0.988046 0.022283 0.0 
0.470671 -0.0035265 0.0 
1.05392 0.0166658 0.0 
0.556649 0.0084605 0.0 
0.543665 -0.00176951 0.0 
1.02029 0.0148071 0.0 
1.02554 -0.0304124 0.0 
0.899474 0.000283385 0.0 
0.639759 0.0101779 0.0 
0.750659 0.0182205 0.0 
0.436502 0.00693386 0.0 
1.01014 0.0226149 0.0 
0.755775 0.000165717 0.0 
0.9095 0.000528097 0.0 
0.863285 0.000417363 0.0 
1.07135 0.00405123 0.0 
0.675945 -0.00479368 0.0 
0.763314 -3.41727e-07 0.0 
0.894071 0.00082715 0.0 
1.00217 0.0138231 0.0 
0.664553 -0.00554679 0.0 
1.03729 0.0224329 0.0 
1.027 0.0248261 0.0 
0.953227 0.000288382 0.0 
0.708835 0.0028186 0.0 
0.978584 0.0271647 0.0 
1.04807 -0.0241033 0.0 
1.04773 0.00423289 0.0 
0.976856 0.00779257 0.0 
0.752121 -0.000323274 0.0 
0.700678 -0.00214483 0.0 
0.671404 -0.00383409 0.0 
0.907096 0.000316833 0.0 
1.09065 -0.0186068 0.0 
0.708389 0.00450014 0.0 
0.729891 0.0163625 0.0 
0.690492 -0.000585359 0.0 
0.726178 -0.00104267 0.0 
0.633116 -0.00384873 0.0 
0.532075 -0.00179488 0.0 
0.708126 -0.00134091 0.0 
0.874627 0.0116734 0.0 
0.730417 -0.0014396 0.0 
0.471932 0.0070875 0.0 
1.03462 0.0100478 0.0 
0.757029 0.0317085 0.0 
0.982866 0.0285029 0.0 
1.04048 -0.0223224 0.0 
0.712904 -0.00386381 0.0 
0.34361 -0.00105208 0.0 
0.812544 0.00904949 0.0 
0.957249 -4.37564e-05 0.0 
1.0679 -0.0319693 0.0 
0.399724 0.00515391 0.0 
0.415015 0.00392319 0.0 
0.975826 -0.000111763 0.0 
0.931996 0.00150823 0.0 
0.690551 -0.00288379 0.0 
1.04255 -0.0285663 0.0 
1.05108 -0.0181105 0.0 
1.02949 -0.0351072 0.0 
0.908355 0.0300675 0.0 
1.04362 -0.0106729 0.0 
0.730489 -0.00201533 0.0 
1.0137 0.0153235 0.0 
0.702223 -0.00169008 0.0 
0.662991 -0.0017934 0.0 
0.862651 0.000409729 0.0 
0.477468 -0.00435782 0.0 
0.707687 -0.000476248 0.0 
0.915742 0.00156572 0.0 
0.807212 5.3806e-06 0.0 
0.708859 0.00188257 0.0 
1.05666 -0.00203713 0.0 
0.666809 0.0137057 0.0 
0.879331 0.000309905 0.0 
0.976898 0.015024 0.0 
0.556809 -0.00111014 0.0 
0.556695 -0.0106658 0.0 
0.705327 -0.00548444 0.0 
1.05614 -0.0225634 0.0 
0.934744 0.00198076 0.0 
0.546836 0.0157614 0.0 
0.723078 0.000194458 0.0 
1.01314 0.00267541 0.0 
0.537136 -0.00622908 0.0 
0.797287 0.000703857 0.0 
0.761724 -0.000532739 0.0 
0.808028 0.00301265 0.0 
0.984111 0.0200838 0.0 
0.751062 -0.00140286 0.0 
0.919532 0.0295369 0.0 
0.654242 -0.00163652 0.0 
0.843761 0.000353524 0.0 
0.591722 -0.0059923 0.0 
0.600734 0.0159837 0.0 
0.781078 0.000595973 0.0 
0.653706 -0.00316899 0.0 
0.769627 -0.00110824 0.0 
0.706425 -5.61133e-05 0.0 
0.911424 0.00111554 0.0 
0.771037 -0.000861172 0.0 
0.647974 -0.00201523 0.0 
0.702254 -0.00389366 0.0 
0.940477 -8.11179e-06 0.0 
0.838009 0.000302395 0.0 
1.01584 0.0240268 0.0 
0.734295 -0.000384832 0.0 
0.775711 0.00874973 0.0 
0.679908 -0.00381605 0.0 
0.90066 0.000461102 0.0 
0.990222 0.018484 0.0 
1.01704 -0.000888912 0.0 
0.660587 -0.00118577 0.0 
0.966343 0.00716576 0.0 
1.01108 -0.00225958 0.0 
0.652401 -0.00409075 0.0 
0.737184 -0.00186563 0.0 
0.725164 -0.00258622 0.0 
0.769553 -0.000291328 0.0 
0.949332 -0.000160399 0.0 
1.06014 -0.0038724 0.0 
0.698864 -0.000291897 0.0 
0.476511 -0.0109392 0.0 
1.08195 -0.0161347 0.0 
1.04599 0.020379 0.0 
0.799204 0.000454602 0.0 
1.07174 -0.0105145 0.0 
0.662896 -0.0014343 0.0 
0.93361 0.0273744 0.0 
0.691423 -0.00236249 0.0 
0.991067 0.0276266 0.0 
1.00711 0.0163524 0.0 
0.672046 -0.000821568 0.0 
0.567113 0.000196399 0.0 
1.03881 -0.0347094 0.0 
0.827259 0.000229495 0.0 
1.0545 -0.0294989 0.0 
0.722473 5.816e-05 0.0 
0.95326 0.0225777 0.0 
0.567147 -0.00823471 0.0 
1.0917 -0.0261043 0.0 
1.00322 0.0053103 0.0 
0.629022 0.00291098 0.0 
0.671232 -0.0013456 0.0 
0.955074 0.00276438 0.0 
0.709753 -0.000851193 0.0 
0.716359 -0.00364557 0.0 
0.8018 -2.4585e-05 0.0 
0.845709 0.019757 0.0 
0.853934 0.00139948 0.0 
0.745249 0.0304176 0.0 
0.994241 0.0209149 0.0 
1.01163 -0.000250685 0.0 
0.499987 5.40689e-06 0.0 
0.930824 0.0197483 0.0 
0.674085 -0.000991922 0.0 
0.721162 -0.00292273 0.0 
1.00382 -0.00077153 0.0 
0.897952 0.0131105 0.0 
1.0107 0.00221196 0.0 
0.747002 -0.00161871 0.0 
1.04437 0.0165704 0.0 
0.90287 0.00830113 0.0 
1.01096 -0.000404939 0.0 
0.884116 0.000411063 0.0 
0.8027 0.0244508 0.0 
0.998308 0.00418729 0.0 
0.742921 0.000124372 0.0 
1.00872 -0.000913216 0.0 
0.576403 -0.00680386 0.0 
0.762484 0.000150088 0.0 
0.705541 0.0173095 0.0 
0.787599 0.0309253 0.0 
0.864096 0.000638886 0.0 
0.604401 -0.00814687 0.0 
0.717618 -0.00105682 0.0 
0.967175 0.000680705 0.0 
0.920582 0.0286705 0.0 
0.592781 0.0239342 0.0 
0.972447 0.00921183 0.0 
0.717203 -0.00165952 0.0 
0.727083 -0.000313812 0.0 
1.00408 0.0185571 0.0 
0.714442 -0.00141254 0.0 
0.419577 0.0108619 0.0 
0.753011 -0.00177362 0.0 
0.756235 -0.000509944 0.0 
1.00724 -0.000897011 0.0 
0.699256 -0.00465601 0.0 
0.864175 0.0286271 0.0 
0.424639 0.0118654 0.0 
0.513411 0.0015321 0.0 
0.711953 -0.00275011 0.0 
0.49622 -0.00499984 0.0 
0.720244 -0.00426481 0.0 
1.04722 -0.0322728 0.0 
0.674321 -0.00234632 0.0 
0.333717 0.00188161 0.0 
1.02382 0.0234318 0.0 
0.436578 -0.00040432 0.0 
1.06042 -0.0343059 0.0 
0.814318 0.0317836 0.0 
0.701029 -0.00261064 0.0 
0.325064 -0.000525845 0.0 
0.998178 0.0230954 0.0 
0.763668 0.00256331 0.0 
0.881431 0.0308739 0.0 
1.0326 -0.0414464 0.0 
0.52389 0.0110996 0.0 
0.584551 -0.00998402 0.0 
1.00604 -0.0010745 0.0 
0.315909 0.000900313 0.0 
0.981489 0.0234682 0.0 
0.724572 -0.00678964 0.0 
0.681774 -0.00434657 0.0 
0.409066 0.00291625 0.0 
0.714802 -0.00528837 0.0 
0.344051 0.00839737 0.0 
0.940539 0.0282385 0.0 
1.00956 -0.000481392 0.0 
1.07831 -0.0189975 0.0 
0.487317 0.0191667 0.0 
0.751793 0.0155972 0.0 
0.723159 -0.000516031 0.0 
1.0832 -0.0101835 0.0 
0.917406 0.00296163 0.0 
0.941922 0.000114567 0.0 
0.644858 -0.00327078 0.0 
0.823629 3.02106e-05 0.0 
0.685145 -0.00346272 0.0 
0.41689 0.00883483 0.0 
0.470664 0.0198411 0.0 
0.710788 -0.00476043 0.0 
1.01019 -0.000382079 0.0 
1.08241 -0.014472 0.0 
0.814813 0.000779219 0.0 
0.606666 0.0109287 0.0 
0.862475 0.00860982 0.0 
0.826953 0.00392084 0.0 
0.79737 -0.000287661 0.0 
0.683062 -0.00063173 0.0 
0.998507 -0.000951529 0.0 
0.955422 0.000613541 0.0 
0.681711 -0.000459001 0.0 
0.726604 -0.00647259 0.0 
0.999467 0.019599 0.0 
0.689732 -0.005198 0.0 
0.588587 -0.00744842 0.0 
1.00486 -0.000958972 0.0 
0.683259 -0.00250976 0.0 
0.542787 0.0199021 0.0 
0.696232 -0.000662649 0.0 
0.372645 -6.87254e-05 0.0 
0.387657 0.00926007 0.0 
0.809203 8.40166e-05 0.0 
0.882478 0.0031606 0.0 
1.02059 -0.0175557 0.0 
0.333826 0.000852405 0.0 
0.31703 0.00469416 0.0 
0.629531 -0.000156123 0.0 
0.669151 -0.00283756 0.0 
0.816642 0.0197876 0.0 
0.988735 -0.000768985 0.0 
0.362461 0.00747057 0.0 
0.457431 -0.00367405 0.0 
0.689188 -0.000969545 0.0 
0.537451 -0.00859238 0.0 
0.612549 -0.00198325 0.0 
0.313683 0.00759576 0.0 
0.937723 0.0233069 0.0 
0.735082 -0.00110503 0.0 
0.802847 0.000579501 0.0 
0.738595 -0.00130315 0.0 
0.969358 -0.000218567 0.0 
0.798718 0.00261087 0.0 
0.955276 0.0249472 0.0 
0.738498 -0.00157342 0.0 
0.754493 -0.00105098 0.0 
1.03532 -0.0195154 0.0 
1.02826 0.018992 0.0 
1.00312 0.021885 0.0 
0.73918 -0.000788287 0.0 
1.00991 -0.000786837 0.0 
0.80303 -0.000242827 0.0 
0.780489 0.00669327 0.0 
0.492228 0.00853178 0.0 
1.07184 -0.0095184 0.0 
1.0967 -0.0242196 0.0 
0.713594 0.00544188 0.0 
0.859359 0.00392364 0.0 
0.664347 -0.0041235 0.0 
0.609774 0.000111479 0.0 
1.02873 0.0100993 0.0 
0.656754 -0.000228242 0.0 
0.732662 0.0195219 0.0 
0.827881 0.000200446 0.0 
0.89516 0.0288931 0.0 
0.691079 0.000451158 0.0 
1.07246 0.00042855 0.0 
0.773985 -0.000414783 0.0 
0.97921 -0.000460609 0.0 
0.991418 -0.000669205 0.0 
0.721653 -0.000739436 0.0 
0.359089 -0.00119033 0.0 
0.481789 0.000209672 0.0 
0.753872 -0.000809901 0.0 
0.351262 -0.00438143 0.0 
0.498479 -0.00214333 0.0 
0.995396 0.0170499 0.0 
0.551127 0.0144501 0.0 
0.701454 -0.00346842 0.0 
0.645267 0.0156891 0.0 
0.484806 0.00106953 0.0 
0.975949 0.00198116 0.0 
0.989786 0.0276958 0.0 
0.743706 -0.00140376 0.0 
0.872642 0.000995189 0.0 
0.658172 -0.00457497 0.0 
0.876257 0.0214969 0.0 
0.543803 -0.0024262 0.0 
0.535455 -0.00958108 0.0 
0.813829 5.51693e-05 0.0 
1.06333 -0.019323 0.0 
1.01035 -0.000536502 0.0 
0.423729 -0.00392925 0.0 
0.33545 -0.00388929 0.0 
0.759878 0.0292565 0.0 
0.923889 0.000174095 0.0 
0.908029 0.000427847 0.0 
0.528473 -0.0118416 0.0 
0.7087 0.0272371 0.0 
0.816447 9.11353e-05 0.0 
0.538878 -0.00792253 0.0 
1.06259 -0.0108635 0.0 
0.568717 0.0112208 0.0 
1.00163 0.00291887 0.0 
0.783399 0.0129869 0.0 
0.801241 -0.000140607 0.0 
0.51754 -0.00750439 0.0 
0.980487 0.0174849 0.0 
0.843082 0.00029875 0.0 
0.681995 0.0153432 0.0 
0.533264 -0.00244777 0.0 
0.914487 0.000180331 0.0 
0.486027 -0.00982972 0.0 
0.932041 0.00261804 0.0 
0.993528 -0.000860574 0.0 
0.418759 0.00165974 0.0 
0.478092 -0.000580746 0.0 
0.87738 0.00241521 0.0 
0.638757 -0.00288238 0.0 
0.892353 0.00635341 0.0 
0.585978 0.000699248 0.0 
0.560709 -0.00960254 0.0 
1.00715 -0.00102241 0.0 
0.810834 0.00101083 0.0 
0.52576 -0.00316121 0.0 
0.79559 0.0108995 0.0 
1.04669 -0.0389281 0.0 
0.972462 -0.000365594 0.0 
0.996569 -0.000793847 0.0 
0.333667 0.00348153 0.0 
0.924932 0.000282004 0.0 
0.389182 0.00199896 0.0 
0.69365 -0.00496869 0.0 
0.677396 -0.00289498 0.0 
1.02379 -0.0209615 0.0 
1.00763 0.0207262 0.0 
0.886582 0.000634122 0.0 
1.03161 0.00412296 0.0 
1.04611 0.0200696 0.0 