<VTKFile type="UnstructuredGrid" version="0.1" byte_order="LittleEndian">
  <UnstructuredGrid>
    <Piece NumberOfPoints="13984" NumberOfCells="27343">
      <Points>
        <DataArray type = "Float64" NumberOfComponents="3" format="ascii">
1.01821 0.992634 0.0 
1.01612 0.995918 0.0 
1.03234 0.986924 0.0 
1.01426 0.9968 0.0 
1.01773 0.996375 0.0 
1.02742 0.991573 0.0 
1.01404 0.996221 0.0 
1.01557 0.995949 0.0 
1.01289 0.991519 0.0 
1.03959 0.992327 0.0 
1.01462 0.995119 0.0 
1.01633 0.995316 0.0 
1.01847 0.996274 0.0 
1.01412 0.993868 0.0 
1.0244 0.993067 0.0 
1.03651 0.986885 0.0 
1.023 0.989216 0.0 
1.01477 0.995917 0.0 
1.03371 0.989101 0.0 
1.02466 0.989382 0.0 
1.03827 0.991247 0.0 
1.02879 0.98898 0.0 
1.00183 0.893511 0.0 
1.01995 0.989714 0.0 
1.01519 0.991618 0.0 
1.03259 0.98844 0.0 
1.01678 0.993269 0.0 
1.02774 0.986248 0.0 
1.01361 0.991283 0.0 
1.01687 0.992607 0.0 
1.01628 0.993839 0.0 
1.02706 0.990932 0.0 
1.03291 0.990655 0.0 
1.03117 0.989413 0.0 
1.01606 0.994636 0.0 
1.02829 0.987869 0.0 
1.01698 0.994461 0.0 
0.991649 1.00079 0.0 
1.01525 0.993011 0.0 
0.986184 0.995424 0.0 
1.02432 0.993806 0.0 
1.02189 0.99469 0.0 
1.03782 0.985682 0.0 
0.980263 0.984768 0.0 
0.997831 0.989698 0.0 
1.02058 0.990227 0.0 
0.990858 0.997025 0.0 
1.02079 0.99344 0.0 
1.02546 0.994585 0.0 
1.02047 0.99407 0.0 
0.955684 0.974486 0.0 
1.02136 0.994089 0.0 
1.02918 0.992699 0.0 
1.02181 0.992841 0.0 
1.02591 0.991363 0.0 
1.0227 0.993357 0.0 
1.02402 0.991488 0.0 
1.03962 0.990896 0.0 
1.02447 0.990681 0.0 
1.02459 0.989971 0.0 
1.02344 0.990728 0.0 
0.944846 0.962466 0.0 
1.0255 0.989683 0.0 
1.02841 0.993848 0.0 
1.02833 0.994657 0.0 
1.02243 0.990686 0.0 
1.02649 0.991514 0.0 
1.01797 0.9915 0.0 
1.03421 0.991391 0.0 
1.02814 0.989898 0.0 
1.02235 0.99408 0.0 
1.03788 0.990776 0.0 
1.03285 0.992294 0.0 
1.04401 0.985933 0.0 
1.02362 0.993214 0.0 
1.03405 0.987887 0.0 
1.03871 0.990811 0.0 
1.00006 0.99153 0.0 
1.03112 0.988038 0.0 
1.02583 0.99427 0.0 
1.03193 0.988982 0.0 
1.01696 0.99078 0.0 
1.0268 0.993643 0.0 
0.927051 0.992139 0.0 
1.023 0.994802 0.0 
1.03528 0.990438 0.0 
1.0283 0.991718 0.0 
1.02902 0.994528 0.0 
0.985805 0.996806 0.0 
1.02151 0.945179 0.0 
1.02333 0.993981 0.0 
0.963353 0.994482 0.0 
1.03695 0.989656 0.0 
0.99763 1.00034 0.0 
1.00208 0.987968 0.0 
1.0253 0.989024 0.0 
1.03286 0.993135 0.0 
0.998931 0.985925 0.0 
1.02733 0.989736 0.0 
1.02044 0.990898 0.0 
1.02474 0.994553 0.0 
1.02388 0.995446 0.0 
1.02539 0.99519 0.0 
1.02136 0.995852 0.0 
1.0186 0.994366 0.0 
1.02942 0.991813 0.0 
1.03722 0.992211 0.0 
1.02767 0.98689 0.0 
1.01699 0.996473 0.0 
1.02941 0.987589 0.0 
1.0295 0.989497 0.0 
1.02971 0.988764 0.0 
1.02509 0.993881 0.0 
1.02323 0.995555 0.0 
1.02397 0.994653 0.0 
1.02625 0.995038 0.0 
1.0229 0.991398 0.0 
1.03904 0.99014 0.0 
1.03439 0.98935 0.0 
1.01953 0.991916 0.0 
1.03983 0.984733 0.0 
1.03568 0.992654 0.0 
1.0248 0.991947 0.0 
0.998777 0.990129 0.0 
1.03382 0.987297 0.0 
1.02923 0.993928 0.0 
1.02216 0.995727 0.0 
1.03711 0.990734 0.0 
1.03064 0.993513 0.0 
1.02067 0.992745 0.0 
1.02596 0.988038 0.0 
1.02607 0.989193 0.0 
1.02452 0.995338 0.0 
0.997522 0.985346 0.0 
1.03653 0.988309 0.0 
1.01949 0.991295 0.0 
1.02776 0.994253 0.0 
1.01873 0.995069 0.0 
0.974408 0.956988 0.0 
1.03622 0.99061 0.0 
1.03824 0.991864 0.0 
1.02482 0.948535 0.0 
1.0379 0.992352 0.0 
1.03346 0.988509 0.0 
1.0433 0.988536 0.0 
1.02528 0.991237 0.0 
1.02291 0.990001 0.0 
1.0199 0.992453 0.0 
1.03359 0.993624 0.0 
1.03666 0.990125 0.0 
1.0359 0.990084 0.0 
1.02768 0.992292 0.0 
1.0343 0.988585 0.0 
0.95198 0.997003 0.0 
1.01387 0.995538 0.0 
0.981351 0.926072 0.0 
1.03419 0.992233 0.0 
1.02077 0.994701 0.0 
1.0182 0.986562 0.0 
1.03006 0.992454 0.0 
1.02647 0.989637 0.0 
1.02615 0.990776 0.0 
1.02193 0.9889 0.0 
1.03507 0.991236 0.0 
0.998972 1.00105 0.0 
1.02678 0.990268 0.0 
1.03618 0.993079 0.0 
1.03534 0.993258 0.0 
1.01881 0.995673 0.0 
1.02325 0.992005 0.0 
1.03579 0.991066 0.0 
0.999118 0.992477 0.0 
1.0349 0.992615 0.0 
1.03752 0.990089 0.0 
1.03758 0.992774 0.0 
1.03634 0.992414 0.0 
0.932188 1.00604 0.0 
1.02508 0.993297 0.0 
1.03602 0.987849 0.0 
0.973655 0.998573 0.0 
1.02487 0.988044 0.0 
0.977702 0.995368 0.0 
1.03487 0.988001 0.0 
1.03005 0.988108 0.0 
1.02215 0.989563 0.0 
1.02528 0.988499 0.0 
1.0268 0.994938 0.0 
1.01744 0.995172 0.0 
1.03909 0.99193 0.0 
1.01881 0.993055 0.0 
1.03355 0.992711 0.0 
0.995821 0.991817 0.0 
1.02858 0.992324 0.0 
1.03552 0.987388 0.0 
1.03982 0.991616 0.0 
1.0391 0.99132 0.0 
1.0356 0.991938 0.0 
1.00623 0.954238 0.0 
1.03741 0.991462 0.0 
1.03181 0.988387 0.0 
1.0289 0.990039 0.0 
1.02964 0.990944 0.0 
1.04163 0.985133 0.0 
1.01922 0.99617 0.0 
1.02967 0.990211 0.0 
1.0288 0.991263 0.0 
1.02375 0.98949 0.0 
1.02697 0.988986 0.0 
1.03232 0.992608 0.0 
1.031 0.992213 0.0 
0.943049 0.969443 0.0 
0.992586 0.998237 0.0 
1.02328 0.953737 0.0 
1.04213 0.989544 0.0 
1.03052 0.992866 0.0 
1.02648 0.986745 0.0 
1.03115 0.988763 0.0 
1.03055 0.994235 0.0 
1.02793 0.991055 0.0 
0.956793 0.96406 0.0 
1.01987 0.99502 0.0 
1.00168 0.988913 0.0 
1.0202 0.991466 0.0 
1.02101 0.991441 0.0 
1.02137 0.992088 0.0 
1.02065 0.995394 0.0 
1.18805 0.840403 0.0 
1.03707 0.987029 0.0 
1.0258 0.992823 0.0 
1.02902 0.988302 0.0 
1.0298 0.993238 0.0 
1.0146 0.99104 0.0 
1.03593 0.98893 0.0 
1.02726 0.992958 0.0 
1.0372 0.987847 0.0 
1.03934 0.986889 0.0 
1.03625 0.989574 0.0 
1.03115 0.994116 0.0 
1.02862 0.987168 0.0 
1.03153 0.987333 0.0 
1.03107 0.992886 0.0 
1.03636 0.987504 0.0 
1.0312 0.991531 0.0 
1.03207 0.993262 0.0 
1.03175 0.993997 0.0 
1.02593 0.993612 0.0 
1.03171 0.992578 0.0 
1.02648 0.993079 0.0 
1.02735 0.994839 0.0 
1.02176 0.990149 0.0 
1.02383 0.990174 0.0 
1.00993 0.941499 0.0 
1.03204 0.991909 0.0 
1.02417 0.98874 0.0 
1.01501 0.944536 0.0 
1.01792 0.99462 0.0 
1.02572 0.991994 0.0 
1.03828 0.990315 0.0 
1.0346 0.990751 0.0 
1.01458 0.994342 0.0 
1.03507 0.988825 0.0 
1.02236 0.995207 0.0 
1.0314 0.993392 0.0 
1.02662 0.992362 0.0 
1.02644 0.994288 0.0 
1.03287 0.98921 0.0 
1.03487 0.989879 0.0 
1.01972 0.993092 0.0 
1.0271 0.994257 0.0 
1.02704 0.991929 0.0 
1.02045 0.99599 0.0 
1.01717 0.991473 0.0 
1.02135 0.990802 0.0 
1.0375 0.98926 0.0 
1.16586 0.892027 0.0 
0.987349 0.99526 0.0 
1.01869 0.991122 0.0 
1.00525 0.963798 0.0 
1.02709 0.988144 0.0 
1.024 0.992424 0.0 
1.02611 0.988648 0.0 
0.988466 0.92351 0.0 
0.986837 0.993241 0.0 
0.98217 0.987313 0.0 
1.01912 0.992496 0.0 
1.01982 0.993736 0.0 
1.03715 0.988609 0.0 
1.02789 0.988504 0.0 
1.02897 0.993346 0.0 
1.00897 0.935863 0.0 
1.03827 0.986251 0.0 
1.03852 0.988607 0.0 
1.02824 0.993018 0.0 
1.02759 0.993663 0.0 
1.03809 0.987826 0.0 
0.992354 0.997509 0.0 
1.03 0.993859 0.0 
1.0218 0.993561 0.0 
1.02562 0.987436 0.0 
1.03777 0.988542 0.0 
1.03298 0.993747 0.0 
1.03346 0.991188 0.0 
1.03817 0.989101 0.0 
1.01956 0.9907 0.0 
0.986767 0.996198 0.0 
1.02296 0.992651 0.0 
1.0365 0.991699 0.0 
1.02374 0.988075 0.0 
1.03958 0.989529 0.0 
0.966433 0.966412 0.0 
1.03056 0.987394 0.0 
1.03269 0.98995 0.0 
0.996612 0.991942 0.0 
1.01536 0.995212 0.0 
1.03322 0.987832 0.0 
0.983529 0.993492 0.0 
1.0367 0.989061 0.0 
1.02307 0.988605 0.0 
1.01745 0.992942 0.0 
0.998344 0.987933 0.0 
1.03226 0.987718 0.0 
1.03479 0.991883 0.0 
0.985829 0.988941 0.0 
1.03382 0.990557 0.0 
0.920903 0.922423 0.0 
0.96878 0.959726 0.0 
0.973003 0.947525 0.0 
1.03456 0.993421 0.0 
1.02113 0.988425 0.0 
1.01933 0.989377 0.0 
1.01787 0.994034 0.0 
1.01755 0.992161 0.0 
0.970667 0.935447 0.0 
1.03758 0.987421 0.0 
0.913008 1.02013 0.0 
1.03416 0.992921 0.0 
0.99095 0.995335 0.0 
1.03898 0.988046 0.0 
1.03653 0.984564 0.0 
1.0112 0.995721 0.0 
1.03688 0.992926 0.0 
0.991371 0.982543 0.0 
0.996959 1.00054 0.0 
1.02115 0.989615 0.0 
1.03882 0.98934 0.0 
1.00063 0.997936 0.0 
1.00971 0.982867 0.0 
1.00982 0.989575 0.0 
1.03664 0.991103 0.0 
1.01227 0.98801 0.0 
1.0387 0.992525 0.0 
1.02876 0.98645 0.0 
1.04039 0.991401 0.0 
1.01786 0.990914 0.0 
1.0403 0.987684 0.0 
1.12075 0.824198 0.0 
1.01569 0.99227 0.0 
0.991735 0.992485 0.0 
0.920138 0.937369 0.0 
1.03442 0.990139 0.0 
1.03315 0.987141 0.0 
1.179 0.879849 0.0 
1.01809 0.993338 0.0 
1.07468 0.875177 0.0 
1.03198 0.989676 0.0 
0.995277 0.995217 0.0 
1.03464 0.9871 0.0 
0.981596 0.996559 0.0 
1.01624 0.996567 0.0 
1.01393 0.994662 0.0 
0.980193 0.973402 0.0 
0.999254 0.811119 0.0 
1.00751 0.985786 0.0 
0.93969 0.958331 0.0 
1.01857 0.991828 0.0 
1.01893 0.993715 0.0 
1.02052 0.989139 0.0 
1.04494 0.847127 0.0 
1.03824 0.989759 0.0 
1.03869 0.987304 0.0 
1.02375 0.985906 0.0 
1.02979 0.994381 0.0 
1.03748 0.986314 0.0 
0.938637 0.951078 0.0 
1.14224 0.873616 0.0 
0.978395 0.951382 0.0 
1.0195 0.990131 0.0 
1.02153 0.995262 0.0 
1.03355 0.989852 0.0 
0.995723 0.999758 0.0 
1.01306 0.992714 0.0 
1.03565 0.988222 0.0 
0.97676 0.986993 0.0 
1.00835 0.991848 0.0 
1.0347 0.986068 0.0 
1.03538 0.989589 0.0 
1.01475 0.996744 0.0 
1.09182 0.890446 0.0 
1.03977 0.988232 0.0 
0.995153 0.995996 0.0 
1.01697 0.995929 0.0 
1.03998 0.985653 0.0 
1.07757 0.896608 0.0 
0.989112 0.994284 0.0 
1.1395 0.858402 0.0 
1.01787 0.99039 0.0 
0.991604 0.994983 0.0 
1.02989 0.986704 0.0 
0.994637 0.887993 0.0 
1.03255 0.986218 0.0 
1.01865 0.989905 0.0 
0.993153 0.99935 0.0 
1.03599 0.986773 0.0 
1.00451 0.994344 0.0 
1.03137 0.986593 0.0 
1.03663 0.986233 0.0 
1.0332 0.986551 0.0 
1.03405 0.986523 0.0 
1.03529 0.986619 0.0 
1.02447 0.987473 0.0 
1.00133 0.995263 0.0 
1.02249 0.988093 0.0 
1.01728 0.990048 0.0 
1.15426 0.88209 0.0 
0.998087 0.973421 0.0 
1.03574 0.986111 0.0 
1.04965 0.864611 0.0 
1.03484 0.943122 0.0 
1.00535 0.995344 0.0 
1.00336 0.995258 0.0 
0.99542 0.972775 0.0 
1.00061 0.988076 0.0 
0.976838 0.977589 0.0 
0.993841 0.998371 0.0 
0.956231 0.806407 0.0 
1.01221 0.991495 0.0 
0.997563 0.993824 0.0 
0.991877 0.993289 0.0 
0.988422 0.993525 0.0 
0.982037 0.994747 0.0 
0.994519 0.997987 0.0 
1.01392 0.992563 0.0 
0.999789 0.990676 0.0 
1.00683 0.991855 0.0 
0.995581 0.998186 0.0 
[...]
<PointData>
  <DataArray type = "Float64" Name="Vitesse" NumberOfComponents="3" format="ascii">
0.525071 -0.0919396 0.0 
0.115371 -0.0151916 0.0 
0.712103 -0.153429 0.0 
0 0 0.0 
0 0 0.0 
0.428041 -0.0832951 0.0 
0.113056 -0.0134892 0.0 
0.12401 -0.0162471 0.0 
0.714232 -0.136673 0.0 
0 0 0.0 
0.28837 -0.0415923 0.0 
0.210155 -0.0298103 0.0 
0 0 0.0 
0.48646 -0.0806738 0.0 
0.324133 -0.0587705 0.0 
0.657006 -0.145968 0.0 
0.705697 -0.139606 0.0 
0.149438 -0.0191951 0.0 
0.536162 -0.114874 0.0 
0.67322 -0.1338 0.0 
0.189798 -0.0421214 0.0 
0.635832 -0.131158 0.0 
0.959266 -0.0472845 0.0 
0.717354 -0.139028 0.0 
0.676421 -0.126128 0.0 
0.611615 -0.130734 0.0 
0.488383 -0.0825109 0.0 
0.780598 -0.162832 0.0 
0.716868 -0.136784 0.0 
0.559298 -0.0987439 0.0 
0.430248 -0.0700146 0.0 
0.502913 -0.0989483 0.0 
0.400565 -0.0839849 0.0 
0.558857 -0.116803 0.0 
0.323141 -0.0492368 0.0 
0.711584 -0.14788 0.0 
0.324672 -0.050067 0.0 
0.726633 0.206062 0.0 
0.557017 -0.0970218 0.0 
0.782229 0.105551 0.0 
0.228881 -0.0404855 0.0 
0.164887 -0.0271318 0.0 
0.711025 -0.160449 0.0 
0.833857 0.0408972 0.0 
0.710685 -0.0365307 0.0 
0.680786 -0.131069 0.0 
0.721 0.129022 0.0 
0.365678 -0.0624881 0.0 
0.0885242 -0.0157134 0.0 
0.289488 -0.0477523 0.0 
0.905307 0.0306198 0.0 
0.264566 -0.044248 0.0 
0.250745 -0.0488484 0.0 
0.415202 -0.073657 0.0 
0.484272 -0.0930613 0.0 
0.329136 -0.0578745 0.0 
0.512989 -0.097033 0.0 
0.196338 -0.0444444 0.0 
0.579294 -0.111993 0.0 
0.633897 -0.124695 0.0 
0.59509 -0.114316 0.0 
0.922751 0.0184854 0.0 
0.639745 -0.127213 0.0 
0.116298 -0.0220109 0.0 
0 0 0.0 
0.617248 -0.118219 0.0 
0.456031 -0.0880951 0.0 
0.635935 -0.117288 0.0 
0.283458 -0.0599709 0.0 
0.575917 -0.116439 0.0 
0.240708 -0.0409523 0.0 
0.259952 -0.0574055 0.0 
0.206091 -0.0423813 0.0 
0.600691 -0.142131 0.0 
0.324774 -0.0579562 0.0 
0.62762 -0.136155 0.0 
0.232696 -0.0519623 0.0 
0.681581 -0.0719012 0.0 
0.663479 -0.140685 0.0 
0.124469 -0.0223922 0.0 
0.580689 -0.122696 0.0 
0.700238 -0.132397 0.0 
0.187184 -0.0344451 0.0 
0.943262 0.0460867 0.0 
0.120538 -0.0202961 0.0 
0.367368 -0.0790495 0.0 
0.391231 -0.0766757 0.0 
0 0 0.0 
0.787845 0.118838 0.0 
0.915934 -0.0983796 0.0 
0.229559 -0.0398943 0.0 
0.894014 0.073748 0.0 
0.411514 -0.0905055 0.0 
0.467243 0.324321 0.0 
0.735896 -0.0862848 0.0 
0.685971 -0.137715 0.0 
0.0919176 -0.018795 0.0 
0.751674 -0.0528233 0.0 
0.604348 -0.121804 0.0 
0.636897 -0.120287 0.0 
0.112307 -0.019504 0.0 
0 0 0.0 
0 0 0.0 
0 0 0.0 
0.295319 -0.0466612 0.0 
0.353838 -0.0701087 0.0 
0.0915538 -0.0199831 0.0 
0.760474 -0.158309 0.0 
0 0 0.0 
0.712645 -0.149598 0.0 
0.583637 -0.120198 0.0 
0.636269 -0.132348 0.0 
0.19868 -0.0355541 0.0 
0 0 0.0 
0.11767 -0.0201831 0.0 
0 0 0.0 
0.545391 -0.102594 0.0 
0.305515 -0.068596 0.0 
0.499511 -0.107633 0.0 
0.568027 -0.103099 0.0 
0.735605 -0.168653 0.0 
0.0761541 -0.0162556 0.0 
0.446985 -0.084184 0.0 
0.70302 -0.0492417 0.0 
0.671023 -0.145919 0.0 
0.0820465 -0.0156482 0.0 
0 0 0.0 
0.285888 -0.0626377 0.0 
0.101845 -0.0201255 0.0 
0.453652 -0.0798481 0.0 
0.729747 -0.148926 0.0 
0.663911 -0.133741 0.0 
0 0 0.0 
0.758204 -0.0407529 0.0 
0.549739 -0.1215 0.0 
0.623424 -0.116092 0.0 
0.0755914 -0.0141125 0.0 
0.187929 -0.0282198 0.0 
0.893749 -0.0112565 0.0 
0.323722 -0.0703457 0.0 
0.108485 -0.0241162 0.0 
0.913735 -0.10775 0.0 
0.0505042 -0.0111377 0.0 
0.590787 -0.126966 0.0 
0.375551 -0.0882343 0.0 
0.511444 -0.0983376 0.0 
0.659949 -0.128688 0.0 
0.504672 -0.0895212 0.0 
0 0 0.0 
0.36791 -0.0804973 0.0 
0.390618 -0.0849518 0.0 
0.339164 -0.0652679 0.0 
0.5693 -0.12319 0.0 
0.91863 0.0673678 0.0 
0.240097 -0.0324046 0.0 
0.928853 -0.0351457 0.0 
0.176923 -0.0371004 0.0 
0.191769 -0.0307767 0.0 
0.800732 -0.15343 0.0 
0.259275 -0.0513981 0.0 
0.626727 -0.12567 0.0 
0.537109 -0.105161 0.0 
0.73343 -0.144963 0.0 
0.279355 -0.0597134 0.0 
0.404757 0.493842 0.0 
0.570264 -0.113389 0.0 
0 0 0.0 
0 0 0.0 
0.0905915 -0.0131531 0.0 
0.475976 -0.0881765 0.0 
0.281008 -0.0605966 0.0 
0.660888 -0.0548249 0.0 
0.104833 -0.0221395 0.0 
0.350621 -0.0772683 0.0 
0 0 0.0 
0.0899744 -0.0195026 0.0 
0.947518 0.0597154 0.0 
0.27734 -0.0504138 0.0 
0.596309 -0.131692 0.0 
0.867847 0.101897 0.0 
0.74053 -0.149958 0.0 
0.843658 0.0948181 0.0 
0.605555 -0.13219 0.0 
0.674591 -0.14172 0.0 
0.697692 -0.136624 0.0 
0.715158 -0.14456 0.0 
0 0 0.0 
0.204084 -0.0300041 0.0 
0.0729368 -0.0163563 0.0 
0.462472 -0.0794277 0.0 
0.130767 -0.0271119 0.0 
0.689889 0.00395055 0.0 
0.312689 -0.0608778 0.0 
0.639113 -0.140816 0.0 
0.0939183 -0.0212842 0.0 
0.156167 -0.0350636 0.0 
0.176039 -0.0376924 0.0 
0.885943 -0.0754975 0.0 
0.186622 -0.0408674 0.0 
0.628486 -0.133489 0.0 
0.548728 -0.111427 0.0 
0.445026 -0.0897107 0.0 
0.692018 -0.160678 0.0 
0 0 0.0 
0.517387 -0.105512 0.0 
0.430046 -0.0854079 0.0 
0.679879 -0.134463 0.0 
0.664222 -0.135017 0.0 
0.178872 -0.0365469 0.0 
0.265246 -0.0534596 0.0 
0.923197 0.0264483 0.0 
0.686545 0.156421 0.0 
0.90202 -0.111443 0.0 
0.292204 -0.0676647 0.0 
0.193544 -0.0385068 0.0 
0.774068 -0.159706 0.0 
0.612115 -0.128879 0.0 
0 0 0.0 
0.471571 -0.0932116 0.0 
0.90832 0.0147849 0.0 
0.166463 -0.0258677 0.0 
0.724614 -0.0853713 0.0 
0.594917 -0.110116 0.0 
0.581008 -0.108031 0.0 
0.51021 -0.0928295 0.0 
0.089759 -0.0138998 0.0 
1.02701 -0.0181089 0.0 
0.638997 -0.142786 0.0 
0.320268 -0.059526 0.0 
0.67733 -0.140829 0.0 
0.163153 -0.0318038 0.0 
0.716731 -0.136168 0.0 
0.50644 -0.11081 0.0 
0.266546 -0.0502751 0.0 
0.575592 -0.128219 0.0 
0.611122 -0.139002 0.0 
0.436464 -0.0953962 0.0 
0 0 0.0 
0.740946 -0.155141 0.0 
0.700058 -0.149553 0.0 
0.175777 -0.0352879 0.0 
0.616938 -0.136628 0.0 
0.342829 -0.0697983 0.0 
0.0965939 -0.0195735 0.0 
0 0 0.0 
0.214029 -0.0390757 0.0 
0.199654 -0.040456 0.0 
0.270277 -0.0503139 0.0 
0 0 0.0 
0.667618 -0.129055 0.0 
0.631765 -0.123119 0.0 
0.912546 -0.07604 0.0 
0.276511 -0.056717 0.0 
0.716303 -0.143451 0.0 
0.91094 -0.0867919 0.0 
0.275734 -0.0423179 0.0 
0.420779 -0.0797254 0.0 
0.304622 -0.0677214 0.0 
0.348482 -0.0743281 0.0 
0.408264 -0.0645329 0.0 
0.533685 -0.116099 0.0 
0.075579 -0.0123632 0.0 
0.0974875 -0.019497 0.0 
0.35657 -0.0676156 0.0 
0.1059 -0.0191403 0.0 
0.543457 -0.115613 0.0 
0.436723 -0.0942945 0.0 
0.435718 -0.074944 0.0 
0.0929056 -0.0169164 0.0 
0.396577 -0.076411 0.0 
0 0 0.0 
0.652954 -0.120949 0.0 
0.627718 -0.119363 0.0 
0.440108 -0.0974123 0.0 
1.04502 -0.0255946 0.0 
0.770017 0.10413 0.0 
0.651165 -0.121718 0.0 
0.861352 -0.0773141 0.0 
0.711738 -0.146221 0.0 
0.41237 -0.0758495 0.0 
0.69658 -0.141388 0.0 
0.931279 -0.0426111 0.0 
0.777045 0.083796 0.0 
0.82021 0.049758 0.0 
0.518552 -0.0917425 0.0 
0.351003 -0.0584201 0.0 
0.510344 -0.11308 0.0 
0.68091 -0.140286 0.0 
0.170319 -0.0327537 0.0 
0.920629 -0.0713879 0.0 
0.671748 -0.151789 0.0 
0.481385 -0.108067 0.0 
0.233622 -0.0446897 0.0 
0.163665 -0.0306413 0.0 
0.560112 -0.125617 0.0 
0.691226 0.139146 0.0 
0.0703798 -0.0137473 0.0 
0.324552 -0.0558928 0.0 
0.757469 -0.154843 0.0 
0.503621 -0.112256 0.0 
0 0 0.0 
0.326542 -0.0685881 0.0 
0.440455 -0.098313 0.0 
0.66577 -0.126223 0.0 
0.776915 0.114147 0.0 
0.410147 -0.0741545 0.0 
0.181632 -0.0394106 0.0 
0.749735 -0.150644 0.0 
0.360996 -0.0816007 0.0 
0.892748 0.0108861 0.0 
0.709007 -0.150501 0.0 
0.477999 -0.100708 0.0 
0.681399 -0.00781348 0.0 
0.253114 -0.0363421 0.0 
0.645094 -0.139114 0.0 
0.805066 0.0878817 0.0 
0.477643 -0.105176 0.0 
0.734448 -0.146385 0.0 
0.509472 -0.0878357 0.0 
0.731612 -0.0456173 0.0 
0.667327 -0.143014 0.0 
0.205573 -0.0435884 0.0 
0.794892 0.0515542 0.0 
0.389628 -0.0827074 0.0 
0.95179 0.000799763 0.0 
0.896684 -0.000830126 0.0 
0.907181 -0.0176736 0.0 
0 0 0.0 
0.758277 -0.1498 0.0 
0.738558 -0.143535 0.0 
0.360941 -0.0579644 0.0 
0.5881 -0.105683 0.0 
0.922512 -0.0216915 0.0 
0.601417 -0.13484 0.0 
0.966235 0.0537115 0.0 
0.0838467 -0.0174847 0.0 
0.721967 0.100454 0.0 
0.523237 -0.118204 0.0 
0.773895 -0.172944 0.0 
0.290746 -0.0423684 0.0 
0 0 0.0 
0.794262 -0.00612472 0.0 
0.532199 0.311 0.0 
0.707946 -0.138177 0.0 
0.400497 -0.0898698 0.0 
0.354476 -0.130588 0.0 
0.795508 -0.118184 0.0 
0.764315 -0.14417 0.0 
0.253301 -0.0550848 0.0 
0.782261 -0.144714 0.0 
0 0 0.0 
0.767394 -0.161212 0.0 
0.105545 -0.0242185 0.0 
0.679009 -0.12788 0.0 
0.528255 -0.120881 0.0 
1.0163 -0.0315511 0.0 
0.61792 -0.1118 0.0 
0.72684 0.0565517 0.0 
0.947877 0.00744561 0.0 
0.420401 -0.0899541 0.0 
0.689761 -0.149479 0.0 
1.03879 -0.0202783 0.0 
0.446804 -0.0751719 0.0 
1.00593 -0.0586096 0.0 
0.519393 -0.109047 0.0 
0.640317 0.0610291 0.0 
0.671998 -0.147177 0.0 
0.822265 0.108582 0.0 
0 0 0.0 
0.381307 -0.0582584 0.0 
0.856546 0.00461315 0.0 
0.986583 -0.0269517 0.0 
0.774133 -0.117554 0.0 
0.929049 0.0160212 0.0 
0.596802 -0.108703 0.0 
0.376996 -0.0622196 0.0 
0.736966 -0.144314 0.0 
0.992888 -0.0435149 0.0 
0.369182 -0.0822175 0.0 
0.590932 -0.133546 0.0 
0.803588 -0.16161 0.0 
0 0 0.0 
0.679212 -0.152502 0.0 
0.93233 0.0103789 0.0 
1.03425 -0.0357852 0.0 
0.89818 -0.0220105 0.0 
0.701286 -0.134683 0.0 
0.088281 -0.014016 0.0 
0.469386 -0.0998546 0.0 
0.586434 0.230685 0.0 
0.635579 -0.116368 0.0 
0.574051 -0.125809 0.0 
0.845959 0.0542115 0.0 
0.732048 -0.148159 0.0 
0.728295 -0.160286 0.0 
0.454978 -0.098635 0.0 
0 0 0.0 
1.02052 -0.0652687 0.0 
0.489666 -0.111373 0.0 
0.630351 0.0816732 0.0 
0.0931285 -0.0122897 0.0 
0.684366 -0.156931 0.0 
1.01076 -0.0739189 0.0 
0.750508 0.0907183 0.0 
1.02821 -0.0339936 0.0 
0.708635 -0.135322 0.0 
0.713058 0.0922494 0.0 
0.748487 -0.158475 0.0 
0.960556 -0.0416504 0.0 
0.743529 -0.160977 0.0 
0.72323 -0.139284 0.0 
0.677415 0.188263 0.0 
0.672375 -0.149272 0.0 
0.656265 -0.152998 0.0 
0.739013 -0.158302 0.0 
0.695937 -0.155333 0.0 
0.720933 -0.156684 0.0 
0.712397 -0.155881 0.0 
0.691209 -0.152766 0.0 
0.765025 -0.155026 0.0 
0.596486 -0.133848 0.0 
0.759207 -0.151514 0.0 
0.731286 -0.140269 0.0 
1.03968 -0.0312886 0.0 
0.8271 -0.0535389 0.0 
0.71382 -0.158341 0.0 
0.991985 -0.051797 0.0 
0.935801 -0.115938 0.0 
0.56989 -0.131294 0.0 
0.611928 -0.154111 0.0 
0.83122 -0.0432592 0.0 
0.730941 -0.0711873 0.0 
0.857417 0.0214722 0.0 
0.652339 0.162879 0.0 
0.982458 -0.0190419 0.0 
0.722599 -0.139686 0.0 
0.634571 -0.0120866 0.0 
0.719208 0.0655845 0.0 
0.760319 0.0837194 0.0 
0.816701 0.0964844 0.0 
0.630453 0.149696 0.0 
0.63025 -0.114537 0.0 
0.69509 -0.0652495 0.0 
0.728233 -0.147494 0.0 
0.587381 0.153065 0.0 
0.777357 0.0956075 0.0 
0.474002 0.151829 0.0 
0.650741 0.211351 0.0 
0.8568 0.0543055 0.0 
0.759416 0.0970437 0.0 
1.02916 -0.0533457 0.0 
0.729312 0.0858367 0.0 
1.02336 -0.03673 0.0 
0.783068 0.171152 0.0 
0.307552 -0.0708574 0.0 
0.705147 0.0083238 0.0 
0.648218 -0.0713497 0.0 
0.579636 -0.0543858 0.0 
0.768867 0.0337275 0.0 
0.732869 -0.0236166 0.0 
1.02072 -0.0540186 0.0 
0.955335 0.0576377 0.0 
0 0 0.0 
0.585173 -0.114698 0.0 
0 0 0.0 
0.730896 -0.13584 0.0 
0.984141 -2.21334e-05 0.0 
0.62195 -0.116734 0.0 
0.671228 -0.100335 0.0 
0.422223 -0.0996749 0.0 
0.738456 -0.055712 0.0 
0.798025 0.128756 0.0 
0.609113 0.073753 0.0 
1.00867 -0.0330604 0.0 
0.563112 -0.0982464 0.0 
0.405659 -0.0648376 0.0 
0.795849 0.0382737 0.0 
1.02516 -0.0597572 0.0 
0.968489 -0.0533499 0.0 
0.440453 -0.0780003 0.0 
0 0 0.0 
0.746973 -0.142798 0.0 
0.691356 0.177441 0.0 
0.733947 0.102076 0.0 
0.718624 -0.147137 0.0 
0.692217 -0.0492994 0.0 
1.01448 -0.0412321 0.0 
0.963766 -0.0651953 0.0 
0.842785 0.065786 0.0 
0.987039 -0.0128858 0.0 
0.678928 -0.126877 0.0 
0.987045 -0.0170458 0.0 
0.816186 0.11876 0.0 
0.805885 0.104434 0.0 
0.49503 -0.116659 0.0 
0.601633 0.0919663 0.0 
0.0686668 -0.0166693 0.0 
0.706826 0.0688141 0.0 
0.191759 -0.032962 0.0 
0.738608 -0.143627 0.0 
0.509706 -0.142803 0.0 
0.570532 -0.103031 0.0 
0.818201 -0.0551568 0.0 
0 0 0.0 
0.739023 -0.147436 0.0 
1.00128 -0.0268333 0.0 
0.63323 -0.15363 0.0 
0.615783 -0.144796 0.0 
0.980387 -0.00281793 0.0 
0.486033 -0.113257 0.0 
0.200357 -0.0475527 0.0 
0.699489 -0.134939 0.0 
0.6556 0.0724481 0.0 
0.76136 0.0422556 0.0 
0.67464 0.00771047 0.0 
0.695304 0.114776 0.0 
0.650152 0.0873984 0.0 
0.698289 0.0995616 0.0 
0.570917 0.101054 0.0 
0.665888 0.107486 0.0 
0.754968 -0.075194 0.0 
0 0 0.0 
0.991052 -0.0191162 0.0 
0.652746 0.304576 0.0 
0.724706 -0.0353585 0.0 
0.623202 0.0297634 0.0 
0.412888 -0.0985228 0.0 
1.00472 -0.0381013 0.0 
0.26585 -0.087002 0.0 
0.992477 -0.0985905 0.0 
0.830888 0.121421 0.0 
0.103818 -0.024714 0.0 
0.740895 0.0919629 0.0 
0.872386 0.125111 0.0 
0.690266 0.0163552 0.0 
0.750015 -0.145788 0.0 
0.537312 0.104193 0.0 
0.609405 -0.0918363 0.0 
0.644454 -0.120112 0.0 
0.65381 -0.153005 0.0 
0.644601 0.0225195 0.0 
0.703107 0.151178 0.0 
0.742934 0.0572105 0.0 
0.858359 0.0803762 0.0 
1.00036 -0.0339266 0.0 
1.0157 -0.0479057 0.0 
0.71003 0.122487 0.0 
0.647388 -0.125755 0.0 
0.274821 -0.0379805 0.0 
0.734544 -0.143767 0.0 
0.733658 0.0335139 0.0 
0.862822 0.0713868 0.0 
1.01155 -0.0361727 0.0 
0.732933 0.127993 0.0 
0.619037 0.10768 0.0 
0.831915 0.056865 0.0 
0.0962058 -0.0237199 0.0 
0.679366 0.122303 0.0 
0.847769 0.0244909 0.0 
0 0 0.0 
0.880421 0.0427997 0.0 
0.819018 -0.0234245 0.0 
0.769422 -0.14487 0.0 
0.683095 -0.139734 0.0 
0.73396 0.0468337 0.0 
0.687345 -0.130262 0.0 
0.901109 0.0526356 0.0 
0.690089 -0.0224346 0.0 
0.808911 0.0319811 0.0 
0.583317 -0.135222 0.0 
0.539216 -0.0808649 0.0 
0.613165 -0.146351 0.0 
1.01776 -0.0253709 0.0 
0 0 0.0 
0.933942 -0.0876423 0.0 
1.02442 -0.047536 0.0 
0.760783 -0.146995 0.0 
0.744466 -0.14408 0.0 
0 0 0.0 
0.717303 0.0774813 0.0 
1.00813 -0.0503474 0.0 
0.993351 -0.0359056 0.0 
0.675209 -0.142023 0.0 
0.871025 0.0690412 0.0 
0.748878 -0.0859559 0.0 
0.789213 0.0923906 0.0 
1.01143 -0.0287893 0.0 
1.00343 -0.0450009 0.0 
0.311322 -0.0573262 0.0 
0.328458 -0.0783593 0.0 
0.725967 0.0206319 0.0 
0.784874 0.0572849 0.0 
0.882139 0.0885013 0.0 
0.843435 0.106836 0.0 
0.998853 -0.0405312 0.0 
0.692196 0.0333709 0.0 
1.00966 -0.0429021 0.0 
0 0 0.0 
0.768733 0.0928656 0.0 
0.672298 -0.128972 0.0 
0.774931 -0.0816391 0.0 
0 0 0.0 
0.768083 -0.147385 0.0 
0.571278 -0.100896 0.0 
0.24995 -0.089017 0.0 
0.997883 -0.0230795 0.0 
1.04753 -0.0326889 0.0 
1.00637 -0.0303619 0.0 
0.95572 -0.00521305 0.0 
0.636979 -0.0317685 0.0 
0.983689 -0.0110321 0.0 
0.393188 -0.0933923 0.0 
0.709518 0.1383 0.0 
0.689626 -0.0823791 0.0 
0.749001 0.0293223 0.0 
0.626491 -0.144312 0.0 
0.491324 -0.113068 0.0 
0 0 0.0 
0.966477 -0.0473578 0.0 
0.761058 -0.141937 0.0 
0.773039 0.0234741 0.0 
0.492188 -0.0991085 0.0 
0.748183 0.103138 0.0 
0.849627 0.0606838 0.0 
0.987201 0.00772518 0.0 
0.807977 -0.00202841 0.0 
0.706365 0.031277 0.0 
0.260004 -0.0750801 0.0 
0.773498 -0.0514316 0.0 
0 0 0.0 
0.319203 -0.0525908 0.0 
0.512816 -0.112818 0.0 
0.77726 -0.0625293 0.0 
0.980894 0.00262633 0.0 
0.782336 0.0147197 0.0 
0.661386 -0.134102 0.0 
0.989769 -0.00676551 0.0 
0.986564 -0.00884227 0.0 
0.611842 0.137463 0.0 
0.733251 0.0697492 0.0 
0.792411 0.0785129 0.0 
0 0 0.0 
0.517899 -0.0933138 0.0 
0.775479 -0.145918 0.0 
0.863032 0.0597814 0.0 
0.762761 -0.0494506 0.0 
0.659081 0.12183 0.0 
0.817093 0.0196763 0.0 
0.180777 -0.0258139 0.0 
0.741067 -0.133021 0.0 
0.986167 -0.00368525 0.0 
0.690552 -0.138588 0.0 
0.507541 0.249541 0.0 
0.685789 -0.107519 0.0 
0.821082 0.0347479 0.0 
0.461359 -0.109437 0.0 
0.763739 0.00363014 0.0 
0.505163 0.127452 0.0 
0.795056 0.00631055 0.0 
0.591093 0.121544 0.0 
0.800263 -0.084483 0.0 
0.716342 -0.0773371 0.0 
0.641292 -0.0518457 0.0 
0.694558 0.0715809 0.0 
0.647388 0.103475 0.0 
0.697457 0.0588836 0.0 
0.753262 0.0685732 0.0 
0.853937 0.067218 0.0 
0.738957 0.0202631 0.0 
0.142184 -0.0170799 0.0 
0.702169 0.044811 0.0 
0.985277 0.00365226 0.0 
0.785895 0.0323774 0.0 
0.973244 -0.0429421 0.0 
1.02218 -0.0309229 0.0 
0.589239 -0.146464 0.0 
1.02064 -0.0419303 0.0 
0.806768 -0.0219656 0.0 
1.03991 -0.0138331 0.0 
0.662385 -0.151764 0.0 
1.03987 -0.0440402 0.0 
0.556322 -0.144379 0.0 
0.521627 -0.096581 0.0 
0.78498 -0.0531002 0.0 
0.992347 -0.0239409 0.0 
0.92181 0.055917 0.0 
0.86987 0.0593559 0.0 
0.988774 0.00378238 0.0 
0.990577 -0.0149227 0.0 
0.678011 -0.152475 0.0 
0.722069 -0.117787 0.0 
0.264275 -0.0640079 0.0 
0.334793 -0.0804218 0.0 
0.611535 -0.131329 0.0 
0.099347 -0.0243206 0.0 
0.425067 -0.0724422 0.0 
0.696472 -0.14844 0.0 
0.990737 -0.0295428 0.0 
0.736882 -0.147085 0.0 
0 0 0.0 
0.263478 -0.0626358 0.0 
0.827645 -0.0149771 0.0 
0 0 0.0 
0.406351 -0.138825 0.0 
0.759847 0.0223292 0.0 
0.685086 0.0462319 0.0 
0.48656 -0.080826 0.0 
0.505644 0.018955 0.0 
0.736096 -0.139314 0.0 
0.398928 -0.0958182 0.0 
0.863763 0.113559 0.0 
0.858201 0.122575 0.0 
0.990022 -0.00319528 0.0 
0.700317 0.0835232 0.0 
0.834182 0.0860733 0.0 
0.534709 -0.102205 0.0 
0.987251 -0.0466441 0.0 
0.747115 -0.146854 0.0 
0.655736 0.187378 0.0 
0.697613 -0.0367816 0.0 
0.710498 0.107561 0.0 
0.521811 -0.149218 0.0 
0.939776 -0.0734102 0.0 
0.730217 -0.00430483 0.0 
0.137955 -0.0182531 0.0 
0.986445 -0.0334557 0.0 
0.744478 -0.0239695 0.0 
0.670661 0.0587672 0.0 
0.786952 -0.111654 0.0 
0.64255 -0.130507 0.0 
0.987143 -0.0403988 0.0 
0.982414 0.00754194 0.0 
0.743396 -0.0769372 0.0 
0 0 0.0 
0.744173 0.0781261 0.0 
0.671523 0.0425669 0.0 
0.917707 0.0609809 0.0 
0.742264 -0.0975014 0.0 
0.679795 -0.0314314 0.0 
0.833091 -0.00253631 0.0 
0.945658 -0.0717727 0.0 
1.02445 -0.0238123 0.0 
0.592813 -0.118966 0.0 
0.653043 -0.0181112 0.0 
0.366698 0.0849469 0.0 
0.767094 -0.146568 0.0 
0.711958 0.0562048 0.0 
0.755567 -0.140059 0.0 
0.671642 0.0752821 0.0 
0.787835 -0.165671 0.0 
0.519078 -0.130007 0.0 
0.719243 0.0426631 0.0 
0.88834 0.0383193 0.0 
0.766724 -0.0288013 0.0 
0.559135 -0.0129168 0.0 
0.6754 -0.0847479 0.0 
0.741961 -0.146856 0.0 
1.0321 -0.0224205 0.0 
0.517262 -0.0233355 0.0 
0.748341 -0.121973 0.0 
0.822275 -0.0454754 0.0 
0.727134 -0.101293 0.0 
0.982274 -0.00728014 0.0 
0.838136 -0.0129445 0.0 
0.719665 0.0296621 0.0 
0.801765 0.0249429 0.0 
0.768685 0.0733854 0.0 
0.591561 -0.132517 0.0 
0.751161 -0.10603 0.0 
0.173195 -0.0302087 0.0 
0.48881 -0.0816181 0.0 
0.560938 -0.146519 0.0 
0.432059 -0.0872183 0.0 
0.667289 -0.0711028 0.0 
0.625787 -0.139327 0.0 
0.674104 -0.149709 0.0 
0.759979 -0.00727918 0.0 
0.852828 0.0439732 0.0 
0.768567 0.0133357 0.0 
0.706464 -0.123885 0.0 
0.579649 0.0153687 0.0 
0.724176 -0.138843 0.0 
0.897333 0.0424014 0.0 
0.636137 0.125898 0.0 
1.03525 -0.040992 0.0 
0.870975 0.0375061 0.0 
0.716713 -0.0494975 0.0 
0.630324 0.00799985 0.0 
0.751112 0.0117503 0.0 
0.718405 -0.14152 0.0 
0.801361 -0.096789 0.0 
0.913993 -0.118948 0.0 
0.456406 0.0900336 0.0 
0.560664 -0.123819 0.0 
0.771062 0.0605418 0.0 
0.653727 -0.107148 0.0 
0.794489 0.0184817 0.0 
0.553691 0.0720464 0.0 
0.587125 -0.12057 0.0 
0.303349 -0.0458266 0.0 
0.741929 0.0006351 0.0 
0.167002 -0.0264624 0.0 
0.778513 0.0462144 0.0 
0 0 0.0 
0.984876 0.0120191 0.0 
0.797386 -0.0473207 0.0 
0.576765 0.1881 0.0 
0.707047 -0.0599841 0.0 
0.616429 -0.00541641 0.0 
1.00413 -0.0678754 0.0 
0.806311 0.0119309 0.0 
0.722841 -0.148943 0.0 
0.860638 0.033761 0.0 
0.746933 0.0441858 0.0 
0.696005 -0.150254 0.0 
0.788805 -0.0934462 0.0 
0.87033 -0.0417122 0.0 
0.183761 -0.0426488 0.0 
0 0 0.0 
1.04759 -0.0114797 0.0 
0.718232 -0.130113 0.0 
0.806204 0.0727145 0.0 
0.905581 0.00841731 0.0 
0.706521 -0.149809 0.0 
0.623868 -0.151833 0.0 
0.977494 0.0361832 0.0 
0.726437 -0.0570659 0.0 
0.346701 -0.100121 0.0 
0.17264 -0.040646 0.0 
0 0 0.0 
0.679882 -0.0564485 0.0 
0.6667 -0.00769595 0.0 
0.75203 -0.134647 0.0 
0.763767 -0.0988696 0.0 
0.761014 0.0544097 0.0 
0.752525 -0.144284 0.0 
0.545344 0.00979034 0.0 
0.738323 -0.14403 0.0 
0.782159 -0.0106629 0.0 
0.878043 0.0610143 0.0 
0.815714 -0.0649827 0.0 
0.839146 0.144129 0.0 
0.65918 0.0340905 0.0 
0.426823 -0.0939613 0.0 
0.790928 -0.102492 0.0 
0.803472 -0.0124816 0.0 
1.02839 -0.0406597 0.0 
0.752105 -0.000505713 0.0 
0.572772 -0.0883959 0.0 
0.718908 0.00172954 0.0 
0.811682 -0.0309171 0.0 
0.160477 -0.0204432 0.0 
0 0 0.0 
0.703618 -0.0126488 0.0 
0.544959 0.0376421 0.0 