<VTKFile type="UnstructuredGrid" version="0.1" byte_order="LittleEndian">
  <UnstructuredGrid>
    <Piece NumberOfPoints="13900" NumberOfCells="27185">
      <Points>
        <DataArray type = "Float64" NumberOfComponents="3" format="ascii">
1.31082 0.982362 0.0 
1.35223 0.990503 0.0 
1.29103 0.976796 0.0 
1.23929 0.980896 0.0 
1.30404 0.975305 0.0 
1.25091 1.00313 0.0 
1.34991 0.948516 0.0 
1.37055 0.977307 0.0 
1.11045 0.968883 0.0 
1.26057 0.986139 0.0 
1.21358 0.95707 0.0 
1.31292 0.985229 0.0 
1.21663 0.983966 0.0 
1.25341 0.900357 0.0 
1.2209 0.962161 0.0 
1.32587 0.98362 0.0 
1.22291 0.982793 0.0 
1.122 0.974642 0.0 
1.35839 0.953078 0.0 
1.23441 0.952908 0.0 
1.21663 0.961287 0.0 
1.2378 0.958116 0.0 
1.27657 0.983732 0.0 
1.34578 0.982279 0.0 
1.20225 0.96208 0.0 
1.28045 0.976425 0.0 
1.36139 0.950017 0.0 
1.29823 0.949375 0.0 
1.22419 0.953828 0.0 
1.2666 0.982835 0.0 
1.20376 0.987445 0.0 
1.33897 0.984844 0.0 
1.27841 0.987685 0.0 
1.30995 0.974732 0.0 
1.11939 0.975482 0.0 
1.20395 0.988269 0.0 
1.29169 0.975954 0.0 
1.33511 0.983277 0.0 
1.38259 0.986418 0.0 
1.11739 0.97435 0.0 
1.21078 0.963063 0.0 
1.36585 0.9842 0.0 
1.2329 0.992985 0.0 
1.1304 0.947623 0.0 
1.33235 0.971028 0.0 
1.35254 0.960639 0.0 
1.27707 0.988661 0.0 
1.21757 0.963757 0.0 
1.34601 0.972374 0.0 
1.22946 0.991992 0.0 
1.34425 0.984304 0.0 
1.2405 0.983217 0.0 
1.31947 0.976407 0.0 
1.27608 0.975507 0.0 
1.20254 0.988536 0.0 
1.32479 0.97921 0.0 
1.24241 0.986212 0.0 
1.27829 0.981411 0.0 
1.28212 0.978014 0.0 
1.23736 0.98032 0.0 
1.28469 0.983939 0.0 
1.32392 0.974509 0.0 
1.38058 0.97671 0.0 
1.27368 0.983117 0.0 
1.31388 0.976942 0.0 
1.31439 0.976071 0.0 
1.28615 0.978671 0.0 
1.35068 0.976282 0.0 
1.39441 0.987968 0.0 
1.253 0.980855 0.0 
1.14307 0.958505 0.0 
1.25988 0.981326 0.0 
1.27118 0.980919 0.0 
1.11351 0.973666 0.0 
1.33418 0.97574 0.0 
1.20291 0.961251 0.0 
1.35603 0.979347 0.0 
1.26869 0.981862 0.0 
1.12281 0.960722 0.0 
1.28546 0.981943 0.0 
1.22568 0.986221 0.0 
1.35095 0.983515 0.0 
1.3052 0.951761 0.0 
1.33438 0.984166 0.0 
1.27029 0.984931 0.0 
1.28275 0.985911 0.0 
1.31593 0.973827 0.0 
1.30137 0.988933 0.0 
1.21857 0.999261 0.0 
1.22086 0.997626 0.0 
1.35389 0.969241 0.0 
1.24992 0.952382 0.0 
1.36186 0.990521 0.0 
1.38275 0.964541 0.0 
1.31464 0.989697 0.0 
1.23372 0.980879 0.0 
1.33745 0.985624 0.0 
1.30903 0.975706 0.0 
1.29465 0.985817 0.0 
1.21806 0.991512 0.0 
1.25206 0.987564 0.0 
1.30283 1.00017 0.0 
1.1216 0.975921 0.0 
1.27027 0.989341 0.0 
1.32286 0.972817 0.0 
1.26584 0.980445 0.0 
1.11911 0.968936 0.0 
1.32424 0.984389 0.0 
1.21378 0.990766 0.0 
1.38414 0.99244 0.0 
1.24646 0.963095 0.0 
1.22185 0.960634 0.0 
1.22463 0.985667 0.0 
1.39827 0.965563 0.0 
1.33211 0.948602 0.0 
1.32191 0.975492 0.0 
1.11031 0.973545 0.0 
1.35627 0.989575 0.0 
1.117 0.963632 0.0 
1.2211 0.986986 0.0 
1.387 0.987518 0.0 
1.24121 0.995813 0.0 
1.27962 0.950712 0.0 
1.33443 0.977277 0.0 
1.31189 0.992212 0.0 
1.2976 0.977291 0.0 
1.25482 0.984463 0.0 
1.30576 0.984717 0.0 
1.36397 0.985465 0.0 
1.30488 0.983067 0.0 
1.40984 0.971071 0.0 
1.23888 1.00256 0.0 
1.35238 0.984343 0.0 
1.30194 0.976155 0.0 
1.34511 0.966813 0.0 
1.11539 0.974234 0.0 
1.30593 0.977557 0.0 
1.22946 1.00122 0.0 
1.35615 0.985749 0.0 
1.40566 0.969536 0.0 
1.11209 0.970661 0.0 
1.31632 0.983154 0.0 
1.35319 0.98254 0.0 
1.32907 0.967555 0.0 
1.3598 0.992257 0.0 
1.24176 1.00597 0.0 
1.31306 0.988267 0.0 
1.33731 0.982513 0.0 
1.22074 0.894737 0.0 
1.27211 0.994892 0.0 
1.11421 0.968755 0.0 
1.22427 0.961631 0.0 
1.24531 0.953329 0.0 
1.36677 0.964014 0.0 
1.20478 1.00709 0.0 
1.20904 0.961035 0.0 
1.24634 0.980885 0.0 
1.1208 0.971222 0.0 
1.22572 0.952103 0.0 
1.22798 0.982813 0.0 
1.11169 0.97216 0.0 
1.33886 0.972257 0.0 
1.23461 0.990599 0.0 
1.29509 0.987174 0.0 
1.22327 0.979425 0.0 
1.16602 0.959013 0.0 
1.14314 0.954936 0.0 
1.37462 0.979331 0.0 
1.28631 0.9892 0.0 
1.37 0.980138 0.0 
1.29604 0.976362 0.0 
1.28692 1.00291 0.0 
1.29256 0.987872 0.0 
1.29026 0.996221 0.0 
1.24024 0.99291 0.0 
1.22292 0.991752 0.0 
1.31391 0.987022 0.0 
1.2222 1.00602 0.0 
1.38028 0.987199 0.0 
1.26072 0.983656 0.0 
1.36564 0.955414 0.0 
1.12418 0.970563 0.0 
1.12307 0.971268 0.0 
1.23072 1.00396 0.0 
1.28721 0.949723 0.0 
1.25222 0.961561 0.0 
1.32008 0.978537 0.0 
1.2375 0.964769 0.0 
1.18294 0.907083 0.0 
1.34808 0.968268 0.0 
1.26586 1.0049 0.0 
1.40472 0.962874 0.0 
1.34102 0.950064 0.0 
1.17166 0.958996 0.0 
1.10756 0.971063 0.0 
1.22569 0.984253 0.0 
1.27317 0.985705 0.0 
1.11385 0.970295 0.0 
1.25674 0.992151 0.0 
1.22641 0.954928 0.0 
1.23391 0.98774 0.0 
1.13762 0.953877 0.0 
1.34752 0.977418 0.0 
1.32864 0.992007 0.0 
1.32516 0.977617 0.0 
1.27077 0.984258 0.0 
1.31076 0.9904 0.0 
1.28057 0.980475 0.0 
1.27961 0.98512 0.0 
1.24923 0.996437 0.0 
1.23835 0.993582 0.0 
1.23665 0.954172 0.0 
1.11536 0.970188 0.0 
1.21221 0.983393 0.0 
1.33948 0.980345 0.0 
1.32758 0.982803 0.0 
1.22845 0.981332 0.0 
1.33009 0.987281 0.0 
1.13842 0.928279 0.0 
1.12131 0.974607 0.0 
1.11044 0.971421 0.0 
1.15223 0.961147 0.0 
1.30949 0.954653 0.0 
1.10762 0.969674 0.0 
1.2777 0.984429 0.0 
1.13271 0.959025 0.0 
1.36914 0.968358 0.0 
1.20721 0.982518 0.0 
1.29367 0.950799 0.0 
1.40834 0.964607 0.0 
1.36854 0.983395 0.0 
1.37662 0.984836 0.0 
1.35485 1.00114 0.0 
1.12636 0.960859 0.0 
1.10976 0.974002 0.0 
1.37655 0.963223 0.0 
1.14526 0.955458 0.0 
1.38905 0.986879 0.0 
1.29595 0.985331 0.0 
1.38078 0.978408 0.0 
1.11938 0.962552 0.0 
1.31896 0.970801 0.0 
1.25673 1.00528 0.0 
1.33103 0.973253 0.0 
1.11607 0.96639 0.0 
1.22763 0.956178 0.0 
1.21336 0.983916 0.0 
1.24687 0.988806 0.0 
1.30674 0.983928 0.0 
1.17868 0.96179 0.0 
1.12083 0.975204 0.0 
1.1091 0.968961 0.0 
1.23785 0.962763 0.0 
1.13553 0.95194 0.0 
1.25749 0.979708 0.0 
1.41991 0.967707 0.0 
1.36252 0.988911 0.0 
1.13856 0.952904 0.0 
1.36898 0.961792 0.0 
1.29155 0.98439 0.0 
1.28961 0.986622 0.0 
1.37157 0.982449 0.0 
1.23337 0.957272 0.0 
1.39001 0.976034 0.0 
1.23556 0.979672 0.0 
1.3434 0.964002 0.0 
1.36217 0.962767 0.0 
1.12951 0.965752 0.0 
1.17741 0.959099 0.0 
1.12222 0.971724 0.0 
1.26678 0.995788 0.0 
1.32375 0.989598 0.0 
1.3035 0.985433 0.0 
1.22115 0.989544 0.0 
1.30704 0.97665 0.0 
1.30606 0.986258 0.0 
1.12669 0.960136 0.0 
1.30689 0.979626 0.0 
1.14167 0.956071 0.0 
1.29741 0.98488 0.0 
1.33983 1.00214 0.0 
1.14704 0.96033 0.0 
1.24401 1.00443 0.0 
1.33789 0.961215 0.0 
1.32076 0.960977 0.0 
1.29023 0.957008 0.0 
1.2439 0.979694 0.0 
1.29333 0.988701 0.0 
1.37509 0.970505 0.0 
1.18327 0.958854 0.0 
1.28752 0.999337 0.0 
1.36728 0.992388 0.0 
1.10966 0.973339 0.0 
1.26269 0.953237 0.0 
1.33394 0.966517 0.0 
1.39296 0.963796 0.0 
1.20573 0.983657 0.0 
1.22582 0.982115 0.0 
1.42154 0.962932 0.0 
1.12965 0.957969 0.0 
1.24228 0.962251 0.0 
1.28578 0.988254 0.0 
1.26187 0.994913 0.0 
1.28927 0.997371 0.0 
1.23521 0.979057 0.0 
1.34495 0.971108 0.0 
1.36329 0.981981 0.0 
1.13461 0.958536 0.0 
1.31059 0.9914 0.0 
1.21294 0.958653 0.0 
1.38568 0.962426 0.0 
1.12011 0.964766 0.0 
1.20521 0.985618 0.0 
1.41083 0.958084 0.0 
1.3566 0.964479 0.0 
1.43557 0.962244 0.0 
1.41063 0.966269 0.0 
1.1349 0.959425 0.0 
1.28994 0.977614 0.0 
1.26828 0.950887 0.0 
1.21456 0.987413 0.0 
1.23399 0.967174 0.0 
1.21871 0.98503 0.0 
1.25774 0.959599 0.0 
1.12118 0.971786 0.0 
1.27608 0.982361 0.0 
1.29851 0.995834 0.0 
1.28428 0.984594 0.0 
1.41441 0.969399 0.0 
1.31048 0.950651 0.0 
1.13764 0.957382 0.0 
1.32351 0.993655 0.0 
1.32872 0.951556 0.0 
1.22363 0.980082 0.0 
1.11301 0.970737 0.0 
1.23792 1.00422 0.0 
1.13409 0.960371 0.0 
1.36485 0.978232 0.0 
1.22823 0.979447 0.0 
1.11813 0.965755 0.0 
1.34775 0.991299 0.0 
1.21533 0.985063 0.0 
1.31977 0.985769 0.0 
1.38405 0.988051 0.0 
1.30592 0.989716 0.0 
1.36895 0.95408 0.0 
1.20338 0.986279 0.0 
1.16454 0.924995 0.0 
1.33698 0.988578 0.0 
1.22005 1.00476 0.0 
1.22392 0.980871 0.0 
1.35409 0.993825 0.0 
1.2328 0.961619 0.0 
1.16006 0.95481 0.0 
1.11479 0.972693 0.0 
1.12265 0.974671 0.0 
1.11323 0.972085 0.0 
1.3612 0.982937 0.0 
1.21522 0.986217 0.0 
1.12523 0.967952 0.0 
1.28726 0.990173 0.0 
1.34555 0.986884 0.0 
1.12428 0.972251 0.0 
1.30026 0.991631 0.0 
1.12112 0.96873 0.0 
1.27045 0.990179 0.0 
1.36339 0.967207 0.0 
1.34614 0.986096 0.0 
1.12083 0.972446 0.0 
1.37765 0.968834 0.0 
1.37464 0.966696 0.0 
1.29446 0.954188 0.0 
1.24051 0.979132 0.0 
1.11634 0.974935 0.0 
1.12148 0.975227 0.0 
1.29758 0.998845 0.0 
1.39598 0.969141 0.0 
1.42405 0.960694 0.0 
1.38552 0.955043 0.0 
1.28378 0.982996 0.0 
1.22787 0.987169 0.0 
1.2332 0.989716 0.0 
1.12389 0.968047 0.0 
1.35664 0.991344 0.0 
1.28259 0.995953 0.0 
1.20752 0.986257 0.0 
1.31485 0.984549 0.0 
1.13514 0.953225 0.0 
1.12431 0.967201 0.0 
1.34104 0.953275 0.0 
1.35263 0.992006 0.0 
1.40252 0.960379 0.0 
1.28434 0.998187 0.0 
1.3118 0.985801 0.0 
1.37514 0.965188 0.0 
1.22707 0.989502 0.0 
1.20312 0.983867 0.0 
1.11689 0.970284 0.0 
1.21736 0.962829 0.0 
1.12029 0.974803 0.0 
1.27053 0.977425 0.0 
1.36148 0.977576 0.0 
1.23144 0.982096 0.0 
1.34814 0.989825 0.0 
1.21378 0.988567 0.0 
1.18291 0.959747 0.0 
1.37348 0.984033 0.0 
1.12215 0.975295 0.0 
1.25982 0.998754 0.0 
1.21332 0.982036 0.0 
1.11947 0.973847 0.0 
1.27746 0.952804 0.0 
1.36561 0.96524 0.0 
1.3488 0.951755 0.0 
1.35198 0.963267 0.0 
1.23694 0.986599 0.0 
1.23202 0.985044 0.0 
1.11333 0.972935 0.0 
1.24956 0.985043 0.0 
1.23472 0.958811 0.0 
1.33547 0.986543 0.0 
1.21574 0.983242 0.0 
1.11756 0.96784 0.0 
1.30434 0.996292 0.0 
1.35053 0.98058 0.0 
1.38202 0.97 0.0 
1.37476 0.98639 0.0 
1.1187 0.970091 0.0 
1.22764 0.995586 0.0 
1.36299 0.993446 0.0 
1.10714 0.968983 0.0 
1.22745 0.988896 0.0 
1.1402 0.954488 0.0 
1.29684 0.997137 0.0 
1.22509 0.958757 0.0 
1.13885 0.955498 0.0 
1.29502 0.990648 0.0 
1.36142 0.97983 0.0 
1.2219 0.987647 0.0 
1.37075 0.988776 0.0 
1.21955 0.980564 0.0 
1.20423 0.959786 0.0 
1.36478 0.986296 0.0 
1.29004 0.992018 0.0 
1.37749 0.989477 0.0 
1.37951 0.983003 0.0 
1.24111 0.987044 0.0 
1.12223 0.967663 0.0 
[...]
<PointData>
  <DataArray type = "Float64" Name="Vitesse" NumberOfComponents="3" format="ascii">
0.272241 0.00208219 0.0 
0.390195 -0.0136821 0.0 
0.345733 0.0139511 0.0 
0.135501 0.00906397 0.0 
0.409895 0.0146744 0.0 
0.578573 -0.0467633 0.0 
0.987981 0.013187 0.0 
0.443111 0.00593493 0.0 
0.5343 -0.00132556 0.0 
0.142038 -0.00457064 0.0 
0.96547 0.0300631 0.0 
0.263371 -0.00387383 0.0 
0.0377167 0.00189693 0.0 
1.03187 0.00875038 0.0 
0.828226 0.0336208 0.0 
0.29249 -0.00123388 0.0 
0.0649126 0.00459237 0.0 
0.04587 0.00658193 0.0 
0.956738 0.012996 0.0 
1.00465 0.0290382 0.0 
0.858221 0.0330092 0.0 
0.929506 0.0321393 0.0 
0.185998 0.000670201 0.0 
0.336622 0.000428064 0.0 
0.836562 0.0311509 0.0 
0.338441 0.0156903 0.0 
0.977943 0.0119513 0.0 
0.996707 0.021186 0.0 
1.00316 0.0289634 0.0 
0.170275 0.003402 0.0 
0.00514162 -0.00559479 0.0 
0.314523 -0.003884 0.0 
0.196783 -0.00913399 0.0 
0.435259 0.0147773 0.0 
0 0 0.0 
0.011992 -0.00736398 0.0 
0.371432 0.0152564 0.0 
0.3114 -0.000917022 0.0 
0.390239 -0.00675436 0.0 
0.0353196 0.00504871 0.0 
0.797578 0.0327658 0.0 
0.360008 -0.00323327 0.0 
0.175 -0.022072 0.0 
1.10806 -0.0320934 0.0 
0.572419 0.0155663 0.0 
0.853251 0.0151364 0.0 
0.204497 -0.0115019 0.0 
0.770511 0.0335611 0.0 
0.542445 0.0128608 0.0 
0.140057 -0.019078 0.0 
0.32428 -0.0029831 0.0 
0.102339 0.00337615 0.0 
0.400392 0.0115139 0.0 
0.360286 0.017662 0.0 
0.0114338 -0.00781508 0.0 
0.34411 0.00678783 0.0 
0.0948033 -0.00429371 0.0 
0.21582 0.00595385 0.0 
0.296084 0.0126507 0.0 
0.143083 0.010458 0.0 
0.204063 -0.000274458 0.0 
0.458958 0.0133963 0.0 
0.465719 0.00593765 0.0 
0.184145 0.00230243 0.0 
0.378331 0.0113122 0.0 
0.402394 0.0125287 0.0 
0.287282 0.0110371 0.0 
0.443134 0.00856793 0.0 
0.418907 -0.00877515 0.0 
0.168392 0.00866096 0.0 
1.0235 -0.000730954 0.0 
0.175737 0.00724808 0.0 
0.208523 0.0074901 0.0 
0.0530673 0.00603895 0.0 
0.437095 0.0108542 0.0 
0.865443 0.0309112 0.0 
0.388455 0.00436097 0.0 
0.187404 0.00550496 0.0 
1.02573 -0.0211447 0.0 
0.224408 0.00420228 0.0 
0.0518985 -0.00359518 0.0 
0.337796 -0.00176674 0.0 
0.980249 0.0208278 0.0 
0.30666 -0.00254745 0.0 
0.16575 -0.00184749 0.0 
0.196661 -0.00490635 0.0 
0.470332 0.0152396 0.0 
0.2654 -0.0119837 0.0 
0.35191 -0.0377411 0.0 
0.294763 -0.0336581 0.0 
0.638057 0.0137305 0.0 
0.999363 0.0281509 0.0 
0.406195 -0.0132958 0.0 
0.768051 0.011766 0.0 
0.306396 -0.013442 0.0 
0.122509 0.00914603 0.0 
0.312984 -0.0053026 0.0 
0.405202 0.0135543 0.0 
0.224317 -0.00491526 0.0 
0.0984244 -0.0167187 0.0 
0.127823 -0.00811268 0.0 
0.564626 -0.0341307 0.0 
0 0 0.0 
0.196947 -0.0130071 0.0 
0.50876 0.0153068 0.0 
0.205667 0.0088729 0.0 
0.484893 0.0129187 0.0 
0.286968 -0.00264097 0.0 
0.0717266 -0.0143614 0.0 
0.47299 -0.0150286 0.0 
0.795404 0.0328697 0.0 
0.875843 0.0332108 0.0 
0.0489382 -0.00219069 0.0 
0.74549 0.0103027 0.0 
0.991403 0.0157362 0.0 
0.428553 0.0124584 0.0 
0.0416764 0.00429177 0.0 
0.382101 -0.0119677 0.0 
0.92963 -0.0209288 0.0 
0.0430779 -0.00537692 0.0 
0.404631 -0.0083151 0.0 
0.28461 -0.0301592 0.0 
0.996264 0.0243081 0.0 
0.399431 0.00881593 0.0 
0.349885 -0.0187974 0.0 
0.343359 0.0123329 0.0 
0.128922 -0.000135313 0.0 
0.248421 -0.00260448 0.0 
0.35795 -0.0051685 0.0 
0.254017 0.000908342 0.0 
0.614301 0.00796834 0.0 
0.532618 -0.0465982 0.0 
0.338087 -0.00317795 0.0 
0.38181 0.0136672 0.0 
0.704129 0.0158341 0.0 
0.0291367 0.00403418 0.0 
0.35029 0.0110348 0.0 
0.458088 -0.0435604 0.0 
0.346 -0.00557487 0.0 
0.650143 0.00884503 0.0 
0.328801 0.0106658 0.0 
0.27642 0.00023269 0.0 
0.346894 -0.000219863 0.0 
0.677245 0.0179877 0.0 
0.435402 -0.0160996 0.0 
0.667432 -0.0527264 0.0 
0.283022 -0.010409 0.0 
0.320325 0.000360341 0.0 
1.03967 0.00226251 0.0 
0.3334 -0.0270374 0.0 
0.524277 0.00573757 0.0 
0.844747 0.0335931 0.0 
0.99384 0.0289515 0.0 
0.779647 0.0134911 0.0 
0.647903 -0.0538542 0.0 
0.869325 0.031906 0.0 
0.152336 0.00885989 0.0 
0.2695 0.0167734 0.0 
1.01738 0.0278065 0.0 
0.0765734 0.00461722 0.0 
0.17352 0.0109724 0.0 
0.540161 0.0138467 0.0 
0.123556 -0.0156705 0.0 
0.232122 -0.0080381 0.0 
0.133413 0.0122791 0.0 
0.969467 0.014089 0.0 
1.0773 -0.00769962 0.0 
0.412734 0.00329358 0.0 
0.234492 -0.0128041 0.0 
0.39543 0.00249312 0.0 
0.366485 0.0140853 0.0 
0.629849 -0.0408437 0.0 
0.232477 -0.00964889 0.0 
0.414932 -0.0284883 0.0 
0.193177 -0.0223509 0.0 
0.116728 -0.0178214 0.0 
0.272988 -0.00770473 0.0 
0.636332 -0.0536225 0.0 
0.39221 -0.00790115 0.0 
0.148285 0.00162616 0.0 
0.931958 0.0126742 0.0 
0.327595 0.0179042 0.0 
0.267994 0.0173529 0.0 
0.571099 -0.0497308 0.0 
0.998727 0.0228357 0.0 
0.841361 0.0320924 0.0 
0.350064 0.00828645 0.0 
0.735116 0.0332923 0.0 
1.05422 -0.00645682 0.0 
0.663603 0.0149382 0.0 
0.666082 -0.0474262 0.0 
0.805114 0.00984063 0.0 
0.982082 0.0147534 0.0 
0.962376 0.0169563 0.0 
0.29727 0.00518129 0.0 
0.056747 0.00119412 0.0 
0.172678 -0.00390467 0.0 
0.363321 0.0116692 0.0 
0.217924 -0.0203833 0.0 
0.988799 0.0299634 0.0 
0.0809618 -0.00805186 0.0 
1.09358 -0.0152975 0.0 
0.413777 0.00750151 0.0 
0.377751 -0.0174951 0.0 
0.37844 0.00920224 0.0 
0.169314 -0.000223115 0.0 
0.310216 -0.0150355 0.0 
0.236848 0.0078212 0.0 
0.188317 -0.00283349 0.0 
0.326597 -0.0317221 0.0 
0.206702 -0.0240891 0.0 
0.990673 0.0298944 0.0 
0.370627 0.0130138 0.0 
0.0333362 0.00316345 0.0 
0.348559 0.00384687 0.0 
0.30067 0.000240596 0.0 
0.101558 0.00810479 0.0 
0.308179 -0.00843913 0.0 
1.08134 -0.0311219 0.0 
0.0441609 0.00662281 0.0 
0.249542 0.00999182 0.0 
0.921383 0.0107613 0.0 
0.953053 0.020929 0.0 
0.464369 -0.00287052 0.0 
0.185117 -0.00104947 0.0 
1.03831 -0.0104234 0.0 
0.66861 0.012487 0.0 
0.0338989 0.00468706 0.0 
0.990407 0.0223005 0.0 
0.76794 0.00953727 0.0 
0.366094 -0.00208056 0.0 
0.376112 -0.00440221 0.0 
0.655846 -0.0276925 0.0 
1.00709 -0.0136753 0.0 
0 0 0.0 
0.797943 0.0124345 0.0 
1.06873 -0.00487271 0.0 
0.402434 -0.00735579 0.0 
0.22666 -0.00382272 0.0 
0.434683 0.00408391 0.0 
0.971232 -0.0208055 0.0 
0.569427 0.0176983 0.0 
0.665923 -0.0495744 0.0 
0.503564 0.0138923 0.0 
0.739527 -0.00533182 0.0 
0.970285 0.030953 0.0 
0.0307116 0.00202575 0.0 
0.1273 -0.0113562 0.0 
0.252665 -0.000955345 0.0 
0.8618 0.0231438 0.0 
0.0179014 0.00311337 0.0 
0.535526 -0.00432105 0.0 
0.806086 0.0336079 0.0 
1.10316 -0.0205233 0.0 
0.203166 0.0110588 0.0 
0.697975 0.00837373 0.0 
0.383086 -0.0107217 0.0 
1.09653 -0.0156092 0.0 
0.828862 0.0132035 0.0 
0.217769 -0.00161253 0.0 
0.215647 -0.00670752 0.0 
0.37517 -0.00079611 0.0 
0.948324 0.0316857 0.0 
0.488473 0.00596159 0.0 
0.154386 0.0119442 0.0 
0.778485 0.0165572 0.0 
0.808157 0.01406 0.0 
0.723888 0.0104152 0.0 
0.952744 0.0197972 0.0 
0.229916 0.0165023 0.0 
0.348597 -0.0294348 0.0 
0.323309 -0.0131092 0.0 
0.243436 -0.00408514 0.0 
0.0690382 -0.0118717 0.0 
0.37588 0.0123707 0.0 
0.251297 -0.0059435 0.0 
1.0285 -0.0157687 0.0 
0.305598 0.00747567 0.0 
1.06835 -0.00711818 0.0 
0.230023 -0.00279614 0.0 
0.668934 -0.0308943 0.0 
0.962587 0.00617425 0.0 
0.614592 -0.04992 0.0 
0.842732 0.0173914 0.0 
0.848962 0.0202076 0.0 
0.9281 0.0250017 0.0 
0.173079 0.011723 0.0 
0.243827 -0.0115753 0.0 
0.612853 0.0109639 0.0 
0.952951 0.0223207 0.0 
0.511353 -0.0348569 0.0 
0.44936 -0.015881 0.0 
0.0556072 0.00498213 0.0 
0.984933 0.0276985 0.0 
0.709383 0.0175557 0.0 
0.78547 0.0108583 0.0 
0.0167662 0.00225069 0.0 
0.081726 0.00621435 0.0 
0.803258 0.00854778 0.0 
1.06802 -0.0177228 0.0 
0.822167 0.0332695 0.0 
0.22055 -0.0105395 0.0 
0.308542 -0.0274723 0.0 
0.44954 -0.0309197 0.0 
0.169719 0.0133271 0.0 
0.578688 0.0139166 0.0 
0.366427 0.000219454 0.0 
1.04395 -0.00945631 0.0 
0.329387 -0.0171614 0.0 
0.932782 0.0311927 0.0 
0.814841 0.0115101 0.0 
0.839959 -0.00668823 0.0 
0.00419485 -0.00182178 0.0 
0.888961 0.0088019 0.0 
0.767661 0.0146278 0.0 
0.815845 0.00752849 0.0 
0.730208 0.00923999 0.0 
1.02175 -0.00648572 0.0 
0.321262 0.012641 0.0 
1.00014 0.0259364 0.0 
0.029435 -0.00610687 0.0 
0.636932 0.0323482 0.0 
0.0361869 -0.000640388 0.0 
0.889415 0.0308472 0.0 
0.222985 0.0161502 0.0 
0.197663 0.00393255 0.0 
0.419827 -0.0270159 0.0 
0.200343 -0.00179567 0.0 
0.656297 0.00836565 0.0 
0.986173 0.0196867 0.0 
1.05813 -0.00873677 0.0 
0.406837 -0.0208528 0.0 
0.975653 0.016967 0.0 
0.117502 0.010818 0.0 
0.318688 0.0118183 0.0 
0.595283 -0.0499889 0.0 
0.996216 -0.00454878 0.0 
0.419116 0.00519314 0.0 
0.143979 0.0123545 0.0 
0.778591 -0.00496224 0.0 
0.397034 -0.0152306 0.0 
0.0280998 -0.000619858 0.0 
0.2788 -0.00523748 0.0 
0.405577 -0.0090989 0.0 
0.28769 -0.0136859 0.0 
0.945533 0.0120071 0.0 
0.000249355 -0.00313029 0.0 
1.0698 -0.010651 0.0 
0.334649 -0.0107805 0.0 
0.581348 -0.0510566 0.0 
0.100313 0.00903547 0.0 
0.461623 -0.018852 0.0 
0.843051 0.0337094 0.0 
1.05449 0.004965 0.0 
0.133961 0.0117544 0.0 
0.0473977 0.00675317 0.0 
0.183266 0.0122101 0.0 
0.356935 -0.00111207 0.0 
0.0264159 -0.00333621 0.0 
0.557123 0.014626 0.0 
0.252968 -0.0150534 0.0 
0.333802 -0.00755186 0.0 
0.194301 0.0157616 0.0 
0.312013 -0.0181424 0.0 
0.498317 0.0140977 0.0 
0.211751 -0.0151776 0.0 
0.698088 0.0134238 0.0 
0.330312 -0.00613638 0.0 
0.171295 0.0145729 0.0 
0.658736 0.0113895 0.0 
0.714055 0.0123016 0.0 
0.962596 0.0233581 0.0 
0.179753 0.0131065 0.0 
0 0 0.0 
0.0202265 0.00363352 0.0 
0.512927 -0.0327321 0.0 
0.656932 0.00976768 0.0 
0.845084 0.00816922 0.0 
0.932167 0.010499 0.0 
0.208821 0.00194623 0.0 
0.0612117 -0.00611454 0.0 
0.103894 -0.0131719 0.0 
0.552695 0.014167 0.0 
0.412549 -0.0148457 0.0 
0.390248 -0.0285654 0.0 
0.00895739 -0.00322365 0.0 
0.267644 -0.00252543 0.0 
1.1001 -0.0193862 0.0 
0.625806 0.0114843 0.0 
0.959248 0.0154479 0.0 
0.419024 -0.0161288 0.0 
0.85306 0.00983591 0.0 
0.46663 -0.0330521 0.0 
0.262032 -0.00507408 0.0 
0.752024 0.0125025 0.0 
0.0840284 -0.0121975 0.0 
0.0093597 0.00174017 0.0 
0.357643 0.0145815 0.0 
0.805454 0.0335269 0.0 
0.0303624 0.00468709 0.0 
0.290505 0.014795 0.0 
0.427444 0.00622835 0.0 
0.0951069 0.00633246 0.0 
0.372057 -0.0126713 0.0 
0.0376974 -0.00882543 0.0 
0.928219 0.0230427 0.0 
0.371712 -0.00316644 0.0 
0.0211624 0.0037316 0.0 
0.4346 -0.0367623 0.0 
0.0546029 0.00618245 0.0 
0.0737373 0.00929949 0.0 
0.982201 0.025521 0.0 
0.749753 0.0135394 0.0 
0.969646 0.013991 0.0 
0.796618 0.0152983 0.0 
0.0818391 -0.00515967 0.0 
0.0683672 -0.000982266 0.0 
0.108385 0.00967347 0.0 
0.113466 -0.00148149 0.0 
0.916486 0.0325774 0.0 
0.313272 -0.00699666 0.0 
0.0428944 0.00356119 0.0 
0.59791 0.00632079 0.0 
0.444694 -0.0273822 0.0 
0.362501 0.00295622 0.0 
0.629411 0.0105735 0.0 
0.378425 -0.00670926 0.0 
0.373611 0.0154794 0.0 
0.240216 -0.0287174 0.0 
0.465838 -0.0176902 0.0 
0.549541 -0.0100987 0.0 
0.0766286 -0.010603 0.0 
1.08573 -0.011396 0.0 
0.45686 -0.0297129 0.0 
0.922925 0.0324618 0.0 
1.0796 -0.0111208 0.0 
0.279668 -0.0160045 0.0 
0.388397 0.00335104 0.0 
0.0490793 -0.00702524 0.0 
0.394147 -0.0103523 0.0 
0.0972641 0.00962422 0.0 
0.909859 0.0302615 0.0 
0.362521 -0.00649955 0.0 
0.297965 -0.0192293 0.0 
0.413599 -0.0112636 0.0 
0.383532 -0.00181639 0.0 
0.094999 -0.00646683 0.0 
0.593262 0.0113206 0.0 
0.590817 0.0309845 0.0 
0.0598766 0.00294874 0.0 
0.0787176 -0.00936837 0.0 
0.0426541 0.0045999 0.0 
0.404932 -0.0100569 0.0 
0.043321 -0.0101794 0.0 
0.608349 0.00885236 0.0 
0.112089 0.00850555 0.0 
0.0594885 -0.00253853 0.0 
1.04136 -0.00343353 0.0 
0.0340231 0.000585373 0.0 
0.0222741 0.00181187 0.0 
0.0235233 0.00406726 0.0 
0.124717 0.00365322 0.0 
0.43982 -0.0224879 0.0 
0.181828 -0.0204164 0.0 
0.5909 0.00989255 0.0 
0.694855 0.00932869 0.0 
0.0139483 -0.00563826 0.0 
0.428986 -0.0146203 0.0 
0.316169 -0.0229961 0.0 
0.447699 -0.0145849 0.0 
0.0943861 -0.00825716 0.0 
0.248771 -0.00891174 0.0 
0.940818 0.00973929 0.0 
0.109883 0.00631636 0.0 
0.113097 0.000324027 0.0 
0.826785 0.00909649 0.0 
0.377241 0.00293364 0.0 
0.433432 -0.0100188 0.0 
0.365786 -0.0102772 0.0 
0.875076 0.0207346 0.0 
0.278458 -0.0214613 0.0 
0.755639 -0.0573667 0.0 
0.426106 0.0165574 0.0 
0.588184 0.0130601 0.0 
0.319549 0.00558082 0.0 
0.0456033 -0.000469932 0.0 
0.439324 -0.0174675 0.0 
1.10407 -0.0354933 0.0 
0.284744 -0.0119436 0.0 
0.378422 -0.0206411 0.0 
0.815907 0.0322568 0.0 
0.214035 -0.0227084 0.0 
0.825746 0.0154728 0.0 
0.969675 -0.00277759 0.0 
0.241006 0.0113558 0.0 
0.390999 -0.00908235 0.0 
0.209744 0.0143985 0.0 
0.930812 0.0180764 0.0 
0.461179 -0.0424679 0.0 
0.0517632 0.0072077 0.0 
0 0 0.0 
0.423004 -0.0102776 0.0 
0.195109 -0.00710651 0.0 
0.338651 0.0165424 0.0 
0.37576 0.00232258 0.0 
0.317717 -0.0113759 0.0 
0.866112 0.0324321 0.0 
0 0 0.0 
0.0158103 0.00115352 0.0 
0.140492 -0.00630862 0.0 
0.398272 -0.0176225 0.0 
0.546932 0.00731636 0.0 
0.0572343 -0.00876025 0.0 
0.143135 -0.00181219 0.0 
0.055932 0.00453886 0.0 
0.617886 0.0118478 0.0 
0.0282857 -0.00855048 0.0 
0.874559 0.0281765 0.0 
0.0900043 -0.00209866 0.0 
0.443279 -0.0188837 0.0 
0.288528 0.0163035 0.0 
0.079002 -0.00139388 0.0 
0.152465 -0.00343179 0.0 
0.23464 -0.00666113 0.0 
0.841591 0.029405 0.0 
0.158202 0.00838409 0.0 
0.850519 -0.0183737 0.0 
0.840543 -0.00192692 0.0 
0.126107 0.010294 0.0 
0.134686 -0.00331623 0.0 
0.12743 -0.00195616 0.0 
0.222581 0.0106588 0.0 
0.470311 -0.0162424 0.0 
0.0159753 0.00265735 0.0 
0.0833105 0.00241825 0.0 
0.0595596 -0.00453943 0.0 
0.439305 0.00507299 0.0 
0.10414 -0.00271457 0.0 
0.347413 -0.00702891 0.0 
0.127958 0.00184387 0.0 
0.902662 0.0271754 0.0 
0.000420953 -0.00405195 0.0 
0.0706164 -0.00243141 0.0 
0.118731 -0.00309879 0.0 
0.110205 -0.00440793 0.0 
0.652332 0.013103 0.0 
0.962043 0.0207698 0.0 
1.10915 -0.0283365 0.0 
0.826663 0.0290896 0.0 
1.09042 -0.0091869 0.0 
0.733086 -0.0570558 0.0 
1.07434 0.00693422 0.0 
0.650468 -0.0072658 0.0 
0.51544 -0.0472287 0.0 
0.899968 0.0241788 0.0 
0.296781 -0.0157503 0.0 
0.792698 -0.0265552 0.0 
0.22802 0.0138302 0.0 
0.438623 0.0132104 0.0 
0.329075 -0.000660736 0.0 
0 0 0.0 
1.0182 0.0224049 0.0 
0.330626 -0.00448867 0.0 
0.812098 0.0306895 0.0 
0.374688 0.0176091 0.0 
0.872516 0.025772 0.0 
0.321674 -0.0214457 0.0 
0.693264 -0.052721 0.0 
0.276398 0.0132767 0.0 
0.0207595 0.00245302 0.0 
0.0248848 0.0035603 0.0 
0.10108 -0.000894003 0.0 
0.00196662 -0.00268128 0.0 
0.292432 -0.00749083 0.0 
0 0 0.0 
1.00545 0.0041618 0.0 
0.223493 -0.0140871 0.0 
0.402283 -0.0191713 0.0 
0.307292 0.0144374 0.0 
0.0199061 -0.00695306 0.0 
0.0441092 0.00129145 0.0 
0.35089 -0.00255144 0.0 
0.0571488 -0.000642888 0.0 
0.292966 -0.0250825 0.0 
0.968412 0.0187877 0.0 
0.315941 0.0176208 0.0 
0.731892 0.0146058 0.0 
0.328493 -0.00888655 0.0 
0.424742 -0.0129508 0.0 
0.186612 -0.0181143 0.0 
0.324654 0.0140502 0.0 
0.0416302 -0.00685652 0.0 
0.071724 0.00279368 0.0 
0.835203 0.011057 0.0 
0.242279 0.00261375 0.0 
0.409451 0.0159661 0.0 
0.0307487 0.00364162 0.0 
0.0386586 -0.00238357 0.0 
0.367936 0.00562738 0.0 
0.912552 -0.00630623 0.0 
1.05103 0.0204132 0.0 
0.736925 0.027439 0.0 
0.349247 -0.0140946 0.0 
0.249266 -0.0197186 0.0 
0.351021 -0.031767 0.0 
0.906673 0.0318047 0.0 
0.511723 0.00876521 0.0 
0.423118 -0.0189842 0.0 
0.177951 -0.00921111 0.0 
0.147647 0.013848 0.0 
0.043384 0.00535355 0.0 
0.413334 0.00422624 0.0 
0.122994 -0.0140416 0.0 
0.883392 0.0123613 0.0 
0.214908 -0.00851584 0.0 
0.158766 -0.00511401 0.0 
0.400417 -0.0396783 0.0 
0.266711 -0.00897158 0.0 
0.668248 -0.0455351 0.0 
0.630497 -0.0490788 0.0 
0.0587224 -0.0102124 0.0 
0.0560546 0.00689783 0.0 
0.960585 0.0267533 0.0 
0.316183 0.0108777 0.0 
0.038881 -0.0101854 0.0 
0.921895 0.00585218 0.0 
0.353312 -0.0125231 0.0 
0.39043 -0.0249165 0.0 
0.574059 -0.029049 0.0 
0.377378 -0.0356146 0.0 
0.0895436 -0.000154478 0.0 
0.572036 -0.0371276 0.0 
0.294459 -0.00885889 0.0 
0.371108 0.00785987 0.0 
0.741918 0.00857723 0.0 
0.201241 0.0134013 0.0 
0.0695108 -0.00405474 0.0 
0.168163 0.00133587 0.0 
0.473877 -0.0262074 0.0 
0.70945 0.0102178 0.0 
0.110241 -0.00615048 0.0 
0.0278831 0.000728143 0.0 
0.369981 -0.0286249 0.0 
0.446823 -0.0394977 0.0 
0.921751 0.0317275 0.0 
0.816881 0.0338564 0.0 
0.956884 0.0296185 0.0 
0.379627 0.00143699 0.0 
0.51511 0.00655153 0.0 
0.596744 0.0138832 0.0 
0.689572 0.0143277 0.0 
0.993442 0.026757 0.0 
0.153189 -0.000176717 0.0 
0.951891 0.0284246 0.0 
0.38854 0.0065163 0.0 
0.191669 0.00953807 0.0 
0.0609281 0.00801525 0.0 
0.0803822 -0.00325064 0.0 
0.129836 0.0074812 0.0 
0.31387 -0.0293852 0.0 
0.393485 0.00966838 0.0 
0.850914 0.0128699 0.0 
0.857034 0.0278321 0.0 
0.358756 -0.0113764 0.0 
0.0104216 0.00136156 0.0 
0.952015 0.0179274 0.0 
0.435865 -0.0120321 0.0 
0.148247 0.00723478 0.0 
0.460717 0.00486751 0.0 
0.986474 0.0171268 0.0 
0.362049 -0.00784758 0.0 
0.290978 0.0158664 0.0 
0.357937 -0.0159892 0.0 
0.987999 0.0241756 0.0 
0.0232204 0.000819322 0.0 
0.363819 -0.00426427 0.0 
0.528207 0.00739171 0.0 
0.211454 -0.00329556 0.0 
0.994897 0.0186961 0.0 
0.524714 -0.0211099 0.0 
0.351482 -0.0086662 0.0 
0.0103573 -0.00577701 0.0 
0.940266 0.0192193 0.0 
0.170297 -0.00719179 0.0 
0.0305391 -0.00210529 0.0 
0.285165 0.00880187 0.0 
0.00953457 -0.00461307 0.0 
0.490137 -0.0401282 0.0 
0.405373 0.0055071 0.0 
0.139353 -0.00975305 0.0 
0.348978 0.0150855 0.0 
0.17273 0.0144455 0.0 
0.754326 0.000467075 0.0 
0.413125 -0.0228294 0.0 
0.124793 -0.00463859 0.0 
0.526614 0.00809516 0.0 
0.0730848 0.00913976 0.0 
0.37283 -0.0139769 0.0 
0.876352 0.010462 0.0 
0.313469 -0.00979371 0.0 
0.146339 0.00347894 0.0 
0.899167 0.0329978 0.0 
0.269487 -0.0250198 0.0 
0.833934 0.0253167 0.0 
0.492919 0.0123323 0.0 
0.454118 0.00696726 0.0 
0.377115 -0.0156243 0.0 
0.513872 -0.0399857 0.0 
0.374624 -0.00924542 0.0 
0.376404 -0.00788005 0.0 
0.335337 -0.0123877 0.0 
0.885645 0.031997 0.0 
1.02121 0.0155474 0.0 
0.600159 0.0152271 0.0 
0.0133817 0.00128182 0.0 
0.743538 0.0220431 0.0 
0.933248 0.0162469 0.0 
0.0821751 0.00999576 0.0 
0.728166 -0.0193563 0.0 
0.404605 0.0176331 0.0 
0.171162 -0.0183288 0.0 
0.177238 0.010505 0.0 
0.145536 0.00539845 0.0 
0.153664 -0.00865168 0.0 
0.310843 0.00967621 0.0 
0.61585 -0.0456783 0.0 
0.143457 0.0124625 0.0 
0.248913 -0.010448 0.0 
0.00894852 -0.00633521 0.0 
0.115104 0.00776793 0.0 
0.476356 0.00936406 0.0 
0.384679 0.000722472 0.0 
0.978615 -0.00162057 0.0 
0.3316 0.00972326 0.0 
0.369742 -0.0054564 0.0 
0.0801999 0.00838442 0.0 
0.822138 -0.0260366 0.0 
0.177484 0.0103214 0.0 
0.00371287 -0.00587933 0.0 
0.282581 -0.0269575 0.0 
0.669645 -0.0430698 0.0 
0.00675763 -0.0053408 0.0 
0.340511 0.00818133 0.0 
0.386363 0.00537753 0.0 
0.767645 0.0324185 0.0 
0.600456 0.0123886 0.0 
0.220849 0.00625491 0.0 
0.0671462 -0.009002 0.0 
0.200175 -0.0204788 0.0 
0.925913 0.00842797 0.0 
0.247805 0.0123087 0.0 
0.400365 -0.011745 0.0 
0.250864 -0.00767449 0.0 
0.938395 0.0316931 0.0 
0.0551547 0.00713261 0.0 
0.499122 0.0151571 0.0 
0.242937 -0.0164207 0.0 
0.63725 0.0129879 0.0 
0.419683 0.0159789 0.0 
0.563654 0.00918896 0.0 
0.463118 0.00626084 0.0 
0.778165 0.0337814 0.0 
0.551087 0.0161034 0.0 
0.41203 -0.0169512 0.0 
0.957002 0.0135179 0.0 
0.419263 0.0112432 0.0 
0.612752 -0.0092029 0.0 
0.0576113 -0.00724777 0.0 
0.0502139 0.00311798 0.0 
0.292818 0.016018 0.0 
0.49672 0.0069074 0.0 
0.235162 -0.00149493 0.0 
0.0864891 0.00748895 0.0 
0.89523 0.0276349 0.0 
0.321684 -0.00176897 0.0 
0.711478 -0.00670151 0.0 
0.178227 -0.00562363 0.0 
0.106991 0.00864489 0.0 
0.693377 -0.0550972 0.0 
0.957063 0.0313431 0.0 
0.500456 -0.0284663 0.0 
0.568305 -0.0205491 0.0 
0.370382 0.00391547 0.0 
0.054724 0.00534893 0.0 
0.0453355 0.00599867 0.0 
0.561287 -0.0311258 0.0 
0.666928 0.0122366 0.0 
0.907579 0.0241772 0.0 
0 0 0.0 
0.382939 0.00796457 0.0 
0.701917 0.0236791 0.0 
0.0352224 -0.00651902 0.0 
0.00348621 -0.00455115 0.0 
0.778733 0.0331961 0.0 
0.949265 0.0162705 0.0 
0.185659 -0.0110362 0.0 
0.973515 0.0301693 0.0 
0.804091 0.0216445 0.0 
0.001781 -0.00360816 0.0 
0.553653 0.00944608 0.0 
0.0932626 0.00165549 0.0 
0.929359 0.0265936 0.0 
0.463387 -0.0447393 0.0 
0.4437 0.0160616 0.0 
0.295908 -0.0208066 0.0 
0.35484 -0.0173627 0.0 
0.990093 0.0291183 0.0 
0.903724 0.032777 0.0 