<VTKFile type="UnstructuredGrid" version="0.1" byte_order="LittleEndian">
  <UnstructuredGrid>
    <Piece NumberOfPoints="13949" NumberOfCells="27253">
      <Points>
        <DataArray type = "Float64" NumberOfComponents="3" format="ascii">
1.17234 0.992561 0.0 
1.13511 0.961471 0.0 
1.198 0.984544 0.0 
1.17722 0.979289 0.0 
1.1734 0.991722 0.0 
1.14676 0.961974 0.0 
1.1803 0.982413 0.0 
1.16241 0.967775 0.0 
1.11575 0.975293 0.0 
1.19655 0.998463 0.0 
1.16704 0.968885 0.0 
1.18239 0.982552 0.0 
1.12881 0.974022 0.0 
1.19848 0.993213 0.0 
1.16995 0.9833 0.0 
1.18431 0.983868 0.0 
1.18044 0.984499 0.0 
1.15542 0.97751 0.0 
1.16344 0.984517 0.0 
1.13648 0.97886 0.0 
1.18638 0.985469 0.0 
1.1837 0.988195 0.0 
1.1858 0.984638 0.0 
1.18666 0.987644 0.0 
1.18893 0.985401 0.0 
1.16782 0.987733 0.0 
1.18025 0.98386 0.0 
1.15371 0.973747 0.0 
1.18534 0.983986 0.0 
1.20253 0.992431 0.0 
1.20668 0.99255 0.0 
1.13989 0.975333 0.0 
1.17223 0.977024 0.0 
1.18052 0.982868 0.0 
1.18205 0.983713 0.0 
1.12149 0.976227 0.0 
1.17319 0.990407 0.0 
1.12569 0.972518 0.0 
1.19392 0.988493 0.0 
1.17768 0.980822 0.0 
1.18247 0.984244 0.0 
1.20068 0.997419 0.0 
1.15458 0.981046 0.0 
1.17062 0.982935 0.0 
1.1262 0.975801 0.0 
1.17452 0.975491 0.0 
1.17956 0.982739 0.0 
1.18132 0.984072 0.0 
1.12376 0.965743 0.0 
1.19707 0.983693 0.0 
1.17371 0.984693 0.0 
1.19939 0.995137 0.0 
1.18474 0.984376 0.0 
1.1448 0.979079 0.0 
1.16898 0.983605 0.0 
1.16912 0.98305 0.0 
1.12678 0.974576 0.0 
1.117 0.975369 0.0 
1.11637 0.974817 0.0 
1.13502 0.975715 0.0 
1.11643 0.976062 0.0 
1.19765 0.988637 0.0 
1.14044 0.978691 0.0 
1.17239 0.98527 0.0 
1.19506 0.992296 0.0 
1.16719 0.983129 0.0 
1.16518 0.989585 0.0 
1.15916 0.986117 0.0 
1.19101 0.985627 0.0 
1.12804 0.973666 0.0 
1.15947 0.98654 0.0 
1.17003 0.974143 0.0 
1.12262 0.976899 0.0 
1.12865 0.974806 0.0 
1.16684 0.988922 0.0 
1.18278 0.981103 0.0 
1.17451 0.981521 0.0 
1.15001 0.973238 0.0 
1.17936 0.983675 0.0 
1.17417 0.991512 0.0 
1.18221 0.983183 0.0 
1.16056 0.986633 0.0 
1.11593 0.976009 0.0 
1.12984 0.973629 0.0 
1.16956 0.986708 0.0 
1.16688 0.982401 0.0 
1.18716 0.984674 0.0 
1.18121 0.981429 0.0 
1.19059 0.98441 0.0 
1.14945 0.983074 0.0 
1.15362 0.981356 0.0 
1.1794 0.984935 0.0 
1.12859 0.976733 0.0 
1.16608 0.982591 0.0 
1.14016 0.980898 0.0 
1.12543 0.973834 0.0 
1.1641 0.981717 0.0 
1.12426 0.965211 0.0 
1.15273 0.967284 0.0 
1.1963 0.984421 0.0 
1.17547 0.972007 0.0 
1.15796 0.986788 0.0 
1.15837 0.964946 0.0 
1.15824 0.96647 0.0 
1.18365 0.98236 0.0 
1.16525 0.98267 0.0 
1.1785 0.983441 0.0 
1.1776 0.98341 0.0 
1.17488 0.97332 0.0 
1.19144 0.983243 0.0 
1.17222 0.974842 0.0 
1.178 0.98296 0.0 
1.12677 0.977076 0.0 
1.18098 0.979777 0.0 
1.13106 0.976858 0.0 
1.16319 0.98532 0.0 
1.175 0.988978 0.0 
1.14209 0.971976 0.0 
1.15447 0.961552 0.0 
1.16432 0.974569 0.0 
1.17441 0.990252 0.0 
1.19756 0.991178 0.0 
1.13287 0.974129 0.0 
1.1666 0.986112 0.0 
1.19763 0.986123 0.0 
1.18105 0.980617 0.0 
1.13268 0.973439 0.0 
1.17237 0.99334 0.0 
1.17234 0.992675 0.0 
1.14432 0.966568 0.0 
1.13931 0.962974 0.0 
1.14858 0.972801 0.0 
1.12762 0.97507 0.0 
1.16271 0.987945 0.0 
1.19191 0.988293 0.0 
1.16345 0.978807 0.0 
1.14759 0.970578 0.0 
1.16313 0.98877 0.0 
1.19323 0.986893 0.0 
1.12819 0.976183 0.0 
1.17506 0.976835 0.0 
1.18288 0.980244 0.0 
1.16135 0.980328 0.0 
1.16826 0.975753 0.0 
1.13442 0.977996 0.0 
1.14102 0.969309 0.0 
1.15688 0.981339 0.0 
1.1486 0.965066 0.0 
1.14807 0.964601 0.0 
1.12392 0.974627 0.0 
1.12735 0.973224 0.0 
1.12866 0.973172 0.0 
1.18533 0.983007 0.0 
1.1231 0.975723 0.0 
1.20616 0.99027 0.0 
1.13744 0.971721 0.0 
1.1458 0.968037 0.0 
1.14869 0.97971 0.0 
1.15707 0.981978 0.0 
1.13692 0.978228 0.0 
1.16633 0.984699 0.0 
1.16109 0.979705 0.0 
1.1246 0.975189 0.0 
1.12472 0.976388 0.0 
1.18734 0.984078 0.0 
1.12573 0.975076 0.0 
1.15498 0.98419 0.0 
1.2012 0.993078 0.0 
1.16958 0.991372 0.0 
1.13972 0.973684 0.0 
1.15608 0.986097 0.0 
1.15584 0.984575 0.0 
1.17028 0.99166 0.0 
1.15345 0.977379 0.0 
1.19854 0.990727 0.0 
1.15791 0.964379 0.0 
1.15685 0.984202 0.0 
1.15575 0.985283 0.0 
1.15443 0.985503 0.0 
1.1357 0.978933 0.0 
1.14763 0.975278 0.0 
1.15578 0.982844 0.0 
1.15498 0.985701 0.0 
1.15624 0.982214 0.0 
1.15999 0.98031 0.0 
1.15652 0.985697 0.0 
1.12348 0.976355 0.0 
1.17057 0.991111 0.0 
1.15678 0.9827 0.0 
1.1503 0.974604 0.0 
1.14938 0.975274 0.0 
1.15761 0.982579 0.0 
1.15553 0.985899 0.0 
1.15613 0.981551 0.0 
1.16289 0.979515 0.0 
1.16392 0.980058 0.0 
1.12079 0.974704 0.0 
1.14447 0.981551 0.0 
1.20541 0.989954 0.0 
1.15504 0.984965 0.0 
1.12646 0.973872 0.0 
1.1479 0.980661 0.0 
1.17201 0.990275 0.0 
1.16926 0.987484 0.0 
1.15812 0.982037 0.0 
1.1378 0.980242 0.0 
1.12413 0.976595 0.0 
1.1304 0.977261 0.0 
1.13242 0.972566 0.0 
1.16422 0.978014 0.0 
1.13696 0.976862 0.0 
1.16628 0.986878 0.0 
1.15657 0.983374 0.0 
1.15774 0.981427 0.0 
1.19617 0.986653 0.0 
1.14619 0.972839 0.0 
1.20316 0.996688 0.0 
1.14006 0.974516 0.0 
1.13587 0.976906 0.0 
1.20364 0.994973 0.0 
1.1584 0.980941 0.0 
1.12492 0.974483 0.0 
1.15581 0.983755 0.0 
1.13286 0.971753 0.0 
1.13092 0.972437 0.0 
1.1232 0.976995 0.0 
1.13783 0.978224 0.0 
1.17542 0.990649 0.0 
1.15086 0.970443 0.0 
1.13255 0.97613 0.0 
1.12837 0.975553 0.0 
1.12526 0.97683 0.0 
1.13977 0.972442 0.0 
1.15306 0.960889 0.0 
1.12517 0.975785 0.0 
1.17141 0.977835 0.0 
1.15427 0.974364 0.0 
1.1662 0.977485 0.0 
1.14668 0.966961 0.0 
1.15082 0.965309 0.0 
1.13122 0.963087 0.0 
1.12578 0.974464 0.0 
1.12376 0.975275 0.0 
1.14771 0.973439 0.0 
1.13382 0.972234 0.0 
1.12599 0.97694 0.0 
1.14114 0.979732 0.0 
1.19988 0.996562 0.0 
1.1228 0.976312 0.0 
1.14911 0.971206 0.0 
1.13834 0.97022 0.0 
1.16539 0.987231 0.0 
1.16007 0.976984 0.0 
1.15853 0.974242 0.0 
1.18485 0.980814 0.0 
1.1467 0.982057 0.0 
1.14913 0.980622 0.0 
1.13502 0.976297 0.0 
1.1394 0.976349 0.0 
1.13843 0.973448 0.0 
1.16044 0.981522 0.0 
1.15135 0.980456 0.0 
1.15295 0.968523 0.0 
1.16825 0.978864 0.0 
1.1579 0.967992 0.0 
1.13538 0.974378 0.0 
1.15971 0.967607 0.0 
1.12385 0.977107 0.0 
1.14427 0.980886 0.0 
1.17324 0.976254 0.0 
1.16264 0.982299 0.0 
1.14068 0.971781 0.0 
1.13376 0.973683 0.0 
1.15849 0.979919 0.0 
1.19718 0.996052 0.0 
1.13495 0.976974 0.0 
1.13256 0.978194 0.0 
1.14493 0.98107 0.0 
1.14602 0.969681 0.0 
1.12886 0.972376 0.0 
1.14474 0.980472 0.0 
1.14283 0.979594 0.0 
1.17074 0.991854 0.0 
1.13533 0.979592 0.0 
1.15748 0.975498 0.0 
1.20071 0.995729 0.0 
1.14726 0.978223 0.0 
1.15261 0.981261 0.0 
1.16056 0.97766 0.0 
1.14337 0.980043 0.0 
1.14535 0.980514 0.0 
1.16821 0.96988 0.0 
1.12673 0.975277 0.0 
1.15527 0.979071 0.0 
1.15186 0.979255 0.0 
1.17252 0.969669 0.0 
1.1403 0.979465 0.0 
1.14391 0.977409 0.0 
1.16057 0.969229 0.0 
1.18109 0.983389 0.0 
1.17658 0.981956 0.0 
1.1302 0.975887 0.0 
1.16921 0.974965 0.0 
1.14552 0.97636 0.0 
1.14914 0.973978 0.0 
1.12787 0.974345 0.0 
1.17897 0.983112 0.0 
1.19954 0.989001 0.0 
1.15127 0.98385 0.0 
1.1833 0.983008 0.0 
1.14409 0.976191 0.0 
1.15547 0.980216 0.0 
1.13318 0.976429 0.0 
1.14666 0.982869 0.0 
1.1643 0.985237 0.0 
1.18834 0.984791 0.0 
1.12785 0.972518 0.0 
1.14919 0.983695 0.0 
1.14519 0.97047 0.0 
1.11925 0.970254 0.0 
1.20531 0.993285 0.0 
1.13605 0.972921 0.0 
1.1501 0.977241 0.0 
1.12538 0.977381 0.0 
1.17661 0.977302 0.0 
1.15727 0.967298 0.0 
1.16212 0.980688 0.0 
1.15632 0.980065 0.0 
1.13835 0.96162 0.0 
1.1501 0.982957 0.0 
1.14597 0.975163 0.0 
1.13193 0.978759 0.0 
1.13174 0.977998 0.0 
1.19808 0.987106 0.0 
1.13331 0.974735 0.0 
1.14709 0.976564 0.0 
1.1668 0.976569 0.0 
1.12896 0.977399 0.0 
1.14471 0.982255 0.0 
1.14127 0.97245 0.0 
1.17018 0.976409 0.0 
1.16686 0.990263 0.0 
1.14179 0.973065 0.0 
1.13963 0.979574 0.0 
1.16068 0.982979 0.0 
1.13927 0.973042 0.0 
1.15572 0.968828 0.0 
1.17165 0.992252 0.0 
1.14622 0.979795 0.0 
1.12998 0.978316 0.0 
1.15008 0.978812 0.0 
1.12459 0.977237 0.0 
1.13346 0.978306 0.0 
1.16668 0.987936 0.0 
1.14418 0.980192 0.0 
1.14158 0.979322 0.0 
1.13731 0.973343 0.0 
1.15884 0.983615 0.0 
1.14206 0.978887 0.0 
1.14843 0.972037 0.0 
1.12414 0.975901 0.0 
1.14546 0.978434 0.0 
1.17784 0.982027 0.0 
1.14854 0.976013 0.0 
1.14433 0.972516 0.0 
1.14517 0.981755 0.0 
1.1726 0.991971 0.0 
1.14532 0.96552 0.0 
1.1526 0.972918 0.0 
1.1526 0.975338 0.0 
1.1423 0.961168 0.0 
1.13857 0.976254 0.0 
1.1593 0.984471 0.0 
1.16175 0.986223 0.0 
1.1429 0.976011 0.0 
1.16214 0.97742 0.0 
1.14096 0.981129 0.0 
1.154 0.983821 0.0 
1.16006 0.983766 0.0 
1.16468 0.973677 0.0 
1.14177 0.976983 0.0 
1.15707 0.974063 0.0 
1.16102 0.981212 0.0 
1.17054 0.984872 0.0 
1.14287 0.97732 0.0 
1.1714 0.981308 0.0 
1.15105 0.981816 0.0 
1.14125 0.973787 0.0 
1.15296 0.979706 0.0 
1.13913 0.97783 0.0 
1.14542 0.977061 0.0 
1.14993 0.968078 0.0 
1.13989 0.976729 0.0 
1.1369 0.975288 0.0 
1.14357 0.980726 0.0 
1.14716 0.979155 0.0 
1.1723 0.982684 0.0 
1.15175 0.967801 0.0 
1.16788 0.981068 0.0 
1.14783 0.969096 0.0 
1.14369 0.978758 0.0 
1.15074 0.981025 0.0 
1.14732 0.971395 0.0 
1.13833 0.977522 0.0 
1.15198 0.976037 0.0 
1.13436 0.979347 0.0 
1.14352 0.981887 0.0 
1.17391 0.9896 0.0 
1.13923 0.975703 0.0 
1.13843 0.978964 0.0 
1.14575 0.980027 0.0 
1.15003 0.981609 0.0 
1.16636 0.975135 0.0 
1.16204 0.972165 0.0 
1.14846 0.981004 0.0 
1.16597 0.983237 0.0 
1.15935 0.972355 0.0 
1.1686 0.980026 0.0 
1.13803 0.976845 0.0 
1.13513 0.978425 0.0 
1.15642 0.968277 0.0 
1.14611 0.982692 0.0 
1.13216 0.974811 0.0 
1.16023 0.986073 0.0 
1.14051 0.973078 0.0 
1.14144 0.974694 0.0 
1.17552 0.98978 0.0 
1.14837 0.982673 0.0 
1.17575 0.980751 0.0 
1.1343 0.978696 0.0 
1.15874 0.980446 0.0 
1.17122 0.973327 0.0 
1.16395 0.970549 0.0 
1.15683 0.977183 0.0 
1.13766 0.974008 0.0 
1.12728 0.973928 0.0 
1.13629 0.97461 0.0 
1.14852 0.983473 0.0 
1.16864 0.981388 0.0 
1.15324 0.965022 0.0 
1.13248 0.977461 0.0 
1.14971 0.982365 0.0 
1.14158 0.976173 0.0 
1.17216 0.991069 0.0 
1.14429 0.975009 0.0 
1.12631 0.977557 0.0 
1.12551 0.963904 0.0 
1.17202 0.983263 0.0 
[...]
<PointData>
  <DataArray type = "Float64" Name="Vitesse" NumberOfComponents="3" format="ascii">
0 0 0.0 
1.0425 -0.0269866 0.0 
0.000208342 0.000367761 0.0 
0.0840758 -0.00117902 0.0 
-0.0101559 -0.00377313 0.0 
0.990257 -0.00946115 0.0 
0.0145734 -0.00404244 0.0 
0.66389 0.0121638 0.0 
0.0635766 0.00488361 0.0 
0.144204 -0.0207313 0.0 
0.590754 0.0135511 0.0 
0.0143402 -0.00297118 0.0 
0.206868 0.0140942 0.0 
0.022188 -0.0109753 0.0 
-0.010243 -0.0113158 0.0 
-0.00515739 -0.00322151 0.0 
-0.0159344 -0.00575421 0.0 
0.0888506 0.00103469 0.0 
-0.0222539 -0.0110565 0.0 
0.00900185 0.00139039 0.0 
-0.0219515 -0.00357186 0.0 
-0.0344134 -0.00567802 0.0 
-0.0138553 -0.00313261 0.0 
-0.0328999 -0.00485041 0.0 
-0.0192789 -0.00269248 0.0 
-0.0245414 -0.00991774 0.0 
-0.00831344 -0.00544095 0.0 
0.266703 0.0105979 0.0 
-0.00593185 -0.00280148 0.0 
0.0163289 -0.010342 0.0 
0.0254073 -0.0113173 0.0 
0.144805 0.010087 0.0 
0.150458 0.00167251 0.0 
0.00682773 -0.00439426 0.0 
-0.0048467 -0.00427066 0.0 
0.0274635 0.00365146 0.0 
-0.0202567 -0.00645499 0.0 
0.339801 0.0130539 0.0 
-0.0272456 -0.00464706 0.0 
0.0442907 -0.00361315 0.0 
-0.0116088 -0.00445383 0.0 
0.122979 -0.0196919 0.0 
0.000914802 -0.00574395 0.0 
-0.00492658 -0.0106177 0.0 
0.0768392 0.00874777 0.0 
0.221459 0.0060744 0.0 
0.00800369 -0.00487889 0.0 
-0.0102696 -0.00494587 0.0 
0.939627 -0.0329116 0.0 
0.0114514 0.00129382 0.0 
-0.0211941 -0.010414 0.0 
0.0619516 -0.0145381 0.0 
-0.0115215 -0.00342763 0.0 
0.0192273 -4.21807e-05 0.0 
-0.0144465 -0.011837 0.0 
-0.00816863 -0.0112539 0.0 
0.160656 0.0128622 0.0 
0.0626992 0.00551238 0.0 
0.113455 0.00696316 0.0 
0.111216 0.0102147 0.0 
0 0 0.0 
-0.0227746 -0.0046537 0.0 
0.0192089 0.00158078 0.0 
-0.0256845 -0.0114396 0.0 
0.0031455 -0.00904157 0.0 
-0.0112153 -0.0115821 0.0 
0 0 0.0 
-0.0115542 -0.00443536 0.0 
-0.0194731 -0.00235944 0.0 
0.234844 0.0144037 0.0 
-0.0088243 -0.00341172 0.0 
0.277557 0.00813935 0.0 
0 0 0.0 
0.148577 0.0125346 0.0 
-0.0141679 -0.00568348 0.0 
0.045355 -0.000936528 0.0 
0.0242008 -0.00662817 0.0 
0.292615 0.0119898 0.0 
-0.0065046 -0.0058608 0.0 
-0.0134054 -0.00460875 0.0 
0.00329315 -0.00371244 0.0 
-0.0117637 -0.00468752 0.0 
0 0 0.0 
0.239266 0.0145381 0.0 
-0.0291971 -0.0119822 0.0 
-0.00262404 -0.0107093 0.0 
-0.0131508 -0.00263031 0.0 
0.0356471 -0.00225066 0.0 
-0.00664807 -0.00129998 0.0 
-0.00549767 -0.00185652 0.0 
-0.00357957 -0.00565941 0.0 
-0.0209494 -0.00659071 0.0 
0.0405682 0.00579135 0.0 
-0.00612893 -0.0109653 0.0 
0 0 0.0 
0.218463 0.0136453 0.0 
0.0033883 -0.00955393 0.0 
0.963641 -0.0349948 0.0 
0.710527 0.00951612 0.0 
-0.000265699 0.000219532 0.0 
0.405435 0.0129586 0.0 
0 0 0.0 
0.834882 0.00628462 0.0 
0.750587 0.00930026 0.0 
0.0193736 -0.00206163 0.0 
-0.00799256 -0.0109693 0.0 
-0.00392232 -0.00625697 0.0 
-0.00427695 -0.00683965 0.0 
0.331536 0.0107317 0.0 
0.0120447 0.000311604 0.0 
0.247223 0.00682366 0.0 
0.00280604 -0.00615777 0.0 
0.018531 0.00315854 0.0 
0.0770213 0.000244367 0.0 
0.0452939 0.00619325 0.0 
-0.0231007 -0.010266 0.0 
-0.0304354 -0.00811652 0.0 
0.374846 0.0146626 0.0 
0.98248 -0.00430157 0.0 
0.24296 0.00728258 0.0 
-0.0232932 -0.00666801 0.0 
-0.0070676 -0.00787478 0.0 
0.205115 0.0140281 0.0 
-0.0265841 -0.0116454 0.0 
-0.016241 -0.00164811 0.0 
0.0546228 -0.00113533 0.0 
0.256681 0.0149318 0.0 
0.0045647 -4.36375e-05 0.0 
0 0 0.0 
0.780499 0.00422887 0.0 
0.982676 -0.0146725 0.0 
0.319767 0.0129272 0.0 
0.127729 0.0116433 0.0 
-0.00756387 -0.0029537 0.0 
-0.029305 -0.00459851 0.0 
0.0667295 -0.0035337 0.0 
0.480701 0.0137566 0.0 
0 0 0.0 
-0.0254919 -0.00309754 0.0 
0.0643078 0.00786473 0.0 
0.164696 0.00316812 0.0 
0.0672856 0.000405079 0.0 
0.0237455 -0.00665764 0.0 
0.194601 0.00430083 0.0 
0.0209789 0.00322521 0.0 
0.589958 0.0112252 0.0 
-0.00043724 -0.00693535 0.0 
0.854792 0.00184666 0.0 
0.880584 -2.94542e-05 0.0 
0.150134 0.0120144 0.0 
0.272567 0.0143506 0.0 
0.276918 0.0146753 0.0 
0.00934507 -0.00186003 0.0 
0.0676759 0.007777 0.0 
-0.00275093 -0.00727313 0.0 
0.396717 0.0147732 0.0 
0.674782 0.0093604 0.0 
0.0139031 -0.00208661 0.0 
-0.0075603 -0.00756602 0.0 
0.0218783 0.00275743 0.0 
-0.0235626 -0.0122769 0.0 
0.0371101 -0.00535207 0.0 
0.110006 0.0105252 0.0 
0.0375643 0.00508994 0.0 
-0.00534286 -0.00202251 0.0 
0.121579 0.0113038 0.0 
-0.0122183 -0.00480525 0.0 
0.0243695 -0.0112251 0.0 
0 0 0.0 
0.247173 0.0137164 0.0 
0 0 0.0 
-0.012306 -0.00476637 0.0 
0 0 0.0 
0.0883959 0.0017709 0.0 
-0.0101093 -0.00734403 0.0 
0.864034 0.00479951 0.0 
-0.0157129 -0.00646069 0.0 
-0.0071803 -0.0026325 0.0 
0 0 0.0 
0.0063902 0.0011012 0.0 
0.166647 0.00844609 0.0 
-0.0135759 -0.00699319 0.0 
0 0 0.0 
-0.00990923 -0.00724703 0.0 
0.0213563 -0.00637938 0.0 
-0.00596598 -0.00221075 0.0 
0.0323762 0.00467652 0.0 
-0.00710155 -0.00288569 0.0 
-0.0130679 -0.00761007 0.0 
0.209676 0.00944447 0.0 
0.171088 0.00809557 0.0 
-0.0122263 -0.0080628 0.0 
0 0 0.0 
-0.00375505 -0.00684555 0.0 
0.0459103 -0.00517215 0.0 
0.0349538 -0.00645751 0.0 
0.136005 0.0102661 0.0 
-0.00280277 -0.00107753 0.0 
-0.006268 -0.0066994 0.0 
-0.00758071 -0.00283409 0.0 
0.21611 0.0139298 0.0 
-0.000222648 -0.00282338 0.0 
-0.0186118 -0.00654945 0.0 
-0.0278423 -0.0110902 0.0 
-0.0074252 -0.00805371 0.0 
0 0 0.0 
0.0243709 0.00365763 0.0 
0.0280896 0.00434592 0.0 
0.328302 0.0151372 0.0 
0.0939756 -0.00151579 0.0 
0.0642619 0.00651587 0.0 
-0.0248377 -0.0103971 0.0 
-0.0153229 -0.00716838 0.0 
-0.000725025 -0.00738321 0.0 
-0.0212361 -0.00244581 0.0 
0.314385 0.0133182 0.0 
0.108395 -0.0188048 0.0 
0.192899 0.0121124 0.0 
0.0592839 0.00639702 0.0 
0.0665799 -0.0152715 0.0 
0.00719149 -0.00701042 0.0 
0.163713 0.0125955 0.0 
-0.0147898 -0.00626585 0.0 
0.398782 0.0143535 0.0 
0.340572 0.0147995 0.0 
0 0 0.0 
0.0240395 0.00272706 0.0 
-0.0220145 -0.0061041 0.0 
0.489196 0.0135487 0.0 
0.0824938 0.00894136 0.0 
0.0995502 0.010336 0.0 
0.0204532 0.00315748 0.0 
0.338325 0.0149228 0.0 
1.00406 -0.00688771 0.0 
0.0734282 0.00837959 0.0 
0.118367 -0.000458058 0.0 
0.231884 0.00918996 0.0 
0.118145 -1.919e-05 0.0 
0.747268 0.00677598 0.0 
0.835046 0.00371829 0.0 
1.01254 -0.0282205 0.0 
0.167301 0.0127685 0.0 
0.100994 0.00995898 0.0 
0.275827 0.0122776 0.0 
0.356 0.0150621 0.0 
0.0196638 0.00320461 0.0 
0.00448529 -0.000107998 0.0 
0.0978144 -0.017561 0.0 
0.0307307 0.00452307 0.0 
0.43365 0.0137973 0.0 
0.521486 0.0127139 0.0 
-0.0215814 -0.00884887 0.0 
0.120816 0.0015678 0.0 
0.247827 0.00851676 0.0 
0.0553308 0.000570919 0.0 
-0.00467236 -0.00168233 0.0 
0.00118639 -0.00335207 0.0 
0.0824353 0.0084148 0.0 
0.092701 0.00742653 0.0 
0.261823 0.0142597 0.0 
0.00119665 -0.00843344 0.0 
0.00536987 -0.00402291 0.0 
0.625796 0.0117731 0.0 
0.0772165 -0.00338284 0.0 
0.655238 0.0117303 0.0 
0.192038 0.0134706 0.0 
0.677757 0.0114661 0.0 
0 0 0.0 
-0.00223478 -0.00140376 0.0 
0.184421 0.00381997 0.0 
-0.00640736 -0.00998108 0.0 
0.390092 0.0148251 0.0 
0.239173 0.0145377 0.0 
0.0268478 -0.00527001 0.0 
0.0792354 -0.0157238 0.0 
0.0541448 0.00630302 0.0 
0.0109249 0.00205799 0.0 
-0.00297987 -0.00168926 0.0 
0.550692 0.012868 0.0 
0.348167 0.0142316 0.0 
0.000205311 -0.00154945 0.0 
0.0082319 -0.000366265 0.0 
0 0 0.0 
0 0 0.0 
0.179788 0.00572021 0.0 
0.0785147 -0.0160547 0.0 
0.0454878 0.001155 0.0 
-0.00319532 -0.00518936 0.0 
0.0967679 -0.00028848 0.0 
0.00302574 -0.000889036 0.0 
3.14386e-05 -0.00182288 0.0 
0.527745 0.0136625 0.0 
0.111372 0.010795 0.0 
0.0402952 -0.00263732 0.0 
0.0286588 -0.00222581 0.0 
0.542284 0.0144218 0.0 
0.00634633 0.000293473 0.0 
0.0627563 0.00390792 0.0 
0.570445 0.0130574 0.0 
-0.000982404 -0.00454006 0.0 
0.0186015 -0.00596472 0.0 
0.0868331 0.00943922 0.0 
0.234066 0.00620852 0.0 
0.108711 0.00638158 0.0 
0.244228 0.0109178 0.0 
0.18043 0.0134039 0.0 
0.00137145 -0.00563242 0.0 
-0.0194691 -0.00511705 0.0 
-0.00489044 -0.00171832 0.0 
0.00722917 -0.00295084 0.0 
0.112591 0.00716514 0.0 
0.0153116 -0.00489719 0.0 
0.0706884 0.00792175 0.0 
0 0 0.0 
-0.0241907 -0.0111139 0.0 
-0.0134523 -0.00232206 0.0 
0.336362 0.013978 0.0 
0 0 0.0 
0.490737 0.0137622 0.0 
0.612567 -0.00908428 0.0 
0.0354441 -0.0123914 0.0 
0.299501 0.0149383 0.0 
0.0849811 0.00287626 0.0 
0 0 0.0 
0.150206 0.00278639 0.0 
0.70113 0.0106232 0.0 
0.0179328 -0.00750893 0.0 
0.0197345 -0.00493254 0.0 
1.02776 -0.0210168 0.0 
-0.00755132 -0.00280508 0.0 
0.168865 0.00923222 0.0 
0 0 0.0 
0.0124161 0.00229657 0.0 
-0.0210115 -0.00279743 0.0 
0.164452 0.0127449 0.0 
0.10408 0.00540535 0.0 
0.155461 0.00231229 0.0 
0.0176726 0.00311372 0.0 
0 0 0.0 
0.338377 0.0146268 0.0 
0.17052 0.00279855 0.0 
0 0 0.0 
0.293585 0.0140025 0.0 
0.00483308 0.000478755 0.0 
-0.0144261 -0.00975277 0.0 
0.292583 0.0145933 0.0 
0.601159 0.0124233 0.0 
0 0 0.0 
0.00900455 -0.00142142 0.0 
0 0 0.0 
0.0357166 -0.000884094 0.0 
0 0 0.0 
0.01119 0.00196732 0.0 
-0.0209261 -0.00847127 0.0 
0.00217004 -0.00116598 0.0 
0.0105222 0.00036628 0.0 
0.268228 0.0145338 0.0 
-0.0174413 -0.00860745 0.0 
0.0180547 0.000886748 0.0 
0.373138 0.0135835 0.0 
0.0614366 0.0073366 0.0 
0.0355282 0.00110474 0.0 
0.0188546 -0.00521095 0.0 
0.132206 0.00643245 0.0 
0.335697 0.0139097 0.0 
-0.0033102 -0.00115886 0.0 
-0.00596268 -0.00238415 0.0 
0.840851 0.00119412 0.0 
0.317144 0.0120864 0.0 
0.175704 0.00720981 0.0 
1.02623 -0.0169344 0.0 
0.09461 0.00788377 0.0 
-0.0187986 -0.00819505 0.0 
-0.0180046 -0.0073212 0.0 
0.117875 0.00776217 0.0 
0.109574 0.000153965 0.0 
0 0 0.0 
-0.0117978 -0.00457397 0.0 
-0.0185411 -0.00937942 0.0 
0.291809 0.00910235 0.0 
0.0728201 0.00540703 0.0 
0.254714 0.00912272 0.0 
0.00674031 -0.00815114 0.0 
-0.0237543 -0.012196 0.0 
0.0633764 0.00427741 0.0 
0.0232755 -0.00780349 0.0 
-0.00783919 -0.00462334 0.0 
0.242553 0.0131528 0.0 
0.0209817 -0.00335492 0.0 
0.0374243 0.0035486 0.0 
0.0796005 0.00445283 0.0 
0.662316 0.0105467 0.0 
0.0778876 0.00628696 0.0 
0.139316 0.0108344 0.0 
-0.00152621 -0.00117658 0.0 
0.022127 -0.000738799 0.0 
0.000657916 -0.0095091 0.0 
0.677932 0.0103465 0.0 
0.0214083 -0.00840914 0.0 
0.592348 0.0121507 0.0 
0.0240945 0.000720958 0.0 
-0.00206468 -0.00431172 0.0 
0.41969 0.0139293 0.0 
0.0447952 0.00451568 0.0 
0.1403 0.00560089 0.0 
0 0 0.0 
0 0 0.0 
-0.0263957 -0.00771437 0.0 
0.123271 0.00925031 0.0 
0.0106198 0.00131562 0.0 
0.00533946 -0.00152782 0.0 
-0.00667686 -0.0041133 0.0 
0.219116 0.00589232 0.0 
0.377592 0.0117158 0.0 
-0.00283114 -0.00322325 0.0 
-0.0134347 -0.0116056 0.0 
0.362012 0.01179 0.0 
0.0461256 -0.00611869 0.0 
0.0680114 0.00637983 0.0 
0.0134364 0.00219805 0.0 
0.638031 0.0118904 0.0 
1.10913e-06 3.73957e-07 0.0 
0.156526 0.0128211 0.0 
-0.0148537 -0.0059884 0.0 
0.291129 0.0143454 0.0 
0.185273 0.0112397 0.0 
-0.0275184 -0.0070945 0.0 
-0.00536142 -0.00190168 0.0 
0.042817 -0.00471036 0.0 
0.00686302 0.00129856 0.0 
0.016561 -0.00631114 0.0 
0.324152 0.00991642 0.0 
0.483 0.0131281 0.0 
0.104614 0.00157156 0.0 
0.221433 0.0134373 0.0 
0.212442 0.0139381 0.0 
0.178812 0.0126352 0.0 
0 0 0.0 
0.0166728 -0.00886951 0.0 
0.843629 0.00411481 0.0 
0.0293422 0.00441718 0.0 
-0.0081169 -0.00340962 0.0 
0.106593 0.00755783 0.0 
-0.0126637 -0.0046391 0.0 
0.173392 0.010146 0.0 
0 0 0.0 
1.01197 -0.038677 0.0 
-0.00753618 -0.010333 0.0 
0.118754 0.0102868 0.0 
-0.0184803 -0.00565082 0.0 
0.0617313 -0.00310452 0.0 
0.191312 0.00760095 0.0 
0.456917 0.0134101 0.0 
0.0120281 -0.00697362 0.0 
0.263082 0.00845958 0.0 
0.0151224 -0.00116195 0.0 
0.69627 0.0144451 0.0 
0.20834 0.0128841 0.0 
-0.00420609 -0.00141976 0.0 
0.0023843 0.000494987 0.0 
0.459682 0.014114 0.0 
-0.00452086 -0.00250161 0.0 
0.372745 0.0121805 0.0 
-0.00968359 -0.00358189 0.0 
0.771177 0.0116301 0.0 
0.447434 0.0131948 0.0 
0.546097 0.0130138 0.0 
-0.012219 -0.00481491 0.0 
0 0 0.0 
0.592334 0.0127367 0.0 
0.212722 0.00697247 0.0 
0.209415 0.0141741 0.0 
0.737594 0.013331 0.0 
0.427069 0.0124738 0.0 
0.486417 0.0138675 0.0 
0.124329 0.00121925 0.0 
0.0114449 -0.00567222 0.0 
0.0450243 -0.000937478 0.0 
0 0 0.0 
-0.00174186 -0.000583349 0.0 
0.102417 0.00337548 0.0 
0.99481 -0.0143173 0.0 
0.416448 0.0122956 0.0 
0.00480653 -0.00201193 0.0 
0.00983227 0.00180901 0.0 
0.407254 0.0133959 0.0 
0.695673 0.00906053 0.0 
0.272262 0.0132182 0.0 
0.146362 0.0116767 0.0 
-0.0135518 -0.00518259 0.0 
-0.00782845 -0.00557944 0.0 
0.46923 0.0132764 0.0 
0.0444506 0.00606002 0.0 
0.0725503 -0.00339241 0.0 
0.10565 0.000820451 0.0 
0.031373 0.00433966 0.0 
-0.002995 -0.00476282 0.0 
0 0 0.0 
0.864635 0.0020214 0.0 
-0.00203008 -0.00924474 0.0 
0.0582267 0.00306635 0.0 
0.0541574 -0.00525481 0.0 
0 0 0.0 
0.357239 0.0110035 0.0 
-0.0102419 -0.00468141 0.0 
0.0279688 -0.00323336 0.0 
0 0 0.0 
-0.00820394 -0.00299913 0.0 
1.00871 -0.0120202 0.0 
0.144657 0.00929557 0.0 
0.063549 -0.000624229 0.0 
0.00975845 -0.0093107 0.0 
0.0559223 -0.0051861 0.0 
0 0 0.0 
-0.0055157 -0.00187931 0.0 
0.051265 -0.00367285 0.0 
-0.00638487 -0.00316003 0.0 
0.0107462 -0.00197441 0.0 
0.155195 0.0055396 0.0 
0.00341528 -0.00674233 0.0 
0.0166753 -0.00300396 0.0 
0 0 0.0 
0.264879 0.00980543 0.0 
0.00387971 -0.00883893 0.0 
0.195889 0.00578396 0.0 
0.235134 0.0141692 0.0 
-0.0125958 -0.00566585 0.0 
0.164584 0.0130391 0.0 
-0.0040684 -0.00140145 0.0 
-0.00240634 -0.000896624 0.0 
0.171511 0.0132623 0.0 
0.0208055 -0.00406012 0.0 
-0.027469 -0.0119995 0.0 
0.945348 -0.0377633 0.0 
-0.01301 -0.0112528 0.0 
0 0 0.0 
0.315244 0.0102826 0.0 
0.0825358 0.00432713 0.0 
-0.00449489 -0.00362498 0.0 
-0.00378149 -0.00127553 0.0 
0.0918235 -0.0162054 0.0 
0.00164413 0.000334112 0.0 
0.568487 0.0140831 0.0 
-0.0100498 -0.0114892 0.0 
0.0287397 0.00208074 0.0 
-0.000658848 -0.00260801 0.0 
0.175042 0.00779031 0.0 
0.414725 0.0127458 0.0 
0 0 0.0 
0.0705207 0.00236373 0.0 
-0.0114072 -0.00457347 0.0 
0.00588071 -0.00115922 0.0 
-0.00605872 -0.00235045 0.0 
0.010131 -0.00499414 0.0 
0.543627 0.0131045 0.0 
0.0960583 0.00423549 0.0 
1.03124 -0.0382285 0.0 
0.541536 0.0134603 0.0 
-0.0222859 -0.00845495 0.0 
0.815584 0.00551587 0.0 
0.00565891 -0.00881722 0.0 
-0.0190735 -0.00563215 0.0 
0 0 0.0 
0.513698 0.0132033 0.0 
0.718048 0.00856453 0.0 
0.0851412 0.00532035 0.0 
0.602065 0.0113811 0.0 
0.62162 0.0110908 0.0 
0.270525 0.00902835 0.0 
0.129066 0.00109337 0.0 
0.00539777 -0.00840762 0.0 
0.0040854 0.000673898 0.0 
0.62326 0.0124265 0.0 
-0.00579407 -0.00266286 0.0 
0.024425 0.00372359 0.0 
0.615755 0.0127322 0.0 
0.037409 0.00541728 0.0 
-0.001407 -0.000968915 0.0 
0.0325911 0.00426432 0.0 
-0.0161514 -0.00155456 0.0 
0.0760695 0.00596378 0.0 
0.527637 0.0128484 0.0 
0.409094 0.0123116 0.0 
0 0 0.0 
0.014792 0.00254949 0.0 
0.611805 0.0118252 0.0 
0.0701857 0.00300541 0.0 
0.0356108 -0.0123595 0.0 
-0.0171968 -0.00699919 0.0 
0.014459 -0.00831711 0.0 
0.0130174 -0.00883196 0.0 
-0.0146457 -0.00914074 0.0 
0.787322 0.00562162 0.0 
-0.00574832 -0.00213955 0.0 
0.0861288 -2.15675e-05 0.0 
0.0078163 -0.00639529 0.0 
-0.00303712 -0.0087771 0.0 
0.368604 0.0148981 0.0 
0.64399 0.0108475 0.0 
0.0353831 -0.00493375 0.0 
0.0274508 -0.00774134 0.0 
0.763865 0.00636611 0.0 
0.0303874 0.000255461 0.0 
0.215769 0.0118835 0.0 
-0.0133451 -0.00710768 0.0 
0.0102886 0.00138368 0.0 
-0.00986294 -0.00596014 0.0 
0.427438 0.0145517 0.0 
-0.00164836 -0.00814547 0.0 
0.346243 0.0150946 0.0 
0.0290355 -0.000316442 0.0 
0.114723 0.00297164 0.0 
-0.0110803 -0.00533473 0.0 
-4.36282e-05 -0.0102038 0.0 
-0.000491328 -0.00377103 0.0 
0.0594676 -0.00418511 0.0 
0.0730225 -0.00362198 0.0 
0.124162 0.0111736 0.0 
0.345016 0.0128716 0.0 
0.0504573 -0.00526481 0.0 
0.957229 -0.00132925 0.0 
0.103458 -0.00139618 0.0 
0.00692734 -0.00351255 0.0 
0.0394192 -0.00640187 0.0 
0.0461682 0.00596292 0.0 
0.0735696 -0.0019596 0.0 
0 0 0.0 
0.0548783 0.00716785 0.0 
0.0439179 0.00585974 0.0 
0.0193332 -0.000391414 0.0 
0.372818 0.011381 0.0 
-0.00901282 -0.0033856 0.0 
-0.00692417 -0.00273277 0.0 
-0.00767404 -0.00285928 0.0 
0.226384 0.00695455 0.0 
0.683248 0.0107706 0.0 
0.012123 -0.000827706 0.0 
0.489446 0.013223 0.0 
0.354834 0.0109988 0.0 
0.0889578 -0.0171992 0.0 
0.241721 0.0145451 0.0 
0.0102967 -0.00965959 0.0 
0.527426 0.0131772 0.0 
0.139551 0.00227628 0.0 
0.162233 0.00325063 0.0 
-0.00865733 -0.0032117 0.0 
0.478424 0.013108 0.0 
-0.00553858 -0.0104723 0.0 
-0.00906337 -0.00979019 0.0 
0.761185 0.00760147 0.0 
0.218166 0.00764761 0.0 
0.0145045 -0.00745062 0.0 
-0.00970968 -0.00385244 0.0 
0.0194489 -0.00825301 0.0 
0.0873005 0.00585914 0.0 
0 0 0.0 
0.135105 0.000715424 0.0 
0.00892791 -0.00826084 0.0 
0.0655975 -0.00440814 0.0 
0.0102371 -0.00750449 0.0 
0.173798 0.0119691 0.0 
0.00367737 -0.0078073 0.0 
0.0199704 -0.00769715 0.0 
0.136098 0.00736421 0.0 
0.669495 0.00912757 0.0 
0.00535207 -0.00506246 0.0 
0.0140649 -0.00747629 0.0 
0.138848 0.00375622 0.0 
-0.0281205 -0.00617865 0.0 
0.828139 0.00306843 0.0 
0.795996 0.004309 0.0 
0.0828258 0.00207021 0.0 
0.4554 0.014106 0.0 
0.7806 0.00753716 0.0 
0.274553 0.014001 0.0 
0.0227792 -0.00167448 0.0 
0.268902 0.00879325 0.0 
0 0 0.0 
0.115935 0.00484986 0.0 
0.196622 0.0136284 0.0 
0.0517389 0.0043155 0.0 
0.195316 0.00995864 0.0 
0.036862 -0.00671114 0.0 
-0.00178971 -0.00983524 0.0 
0.0732926 0.00856787 0.0 
0.010833 -0.00927993 0.0 
-0.0288003 -0.00622465 0.0 
-0.0157437 -0.00555869 0.0 
0.0191249 -0.000679119 0.0 
0.00249481 -0.0102541 0.0 
0.312132 0.0147787 0.0 
-0.00229168 -0.0107374 0.0 
-0.0012154 -0.0105547 0.0 
0.0104739 -0.00932076 0.0 
0.23548 0.00761671 0.0 
0.319082 0.00976323 0.0 
-0.0016352 -0.00199163 0.0 
-0.0106048 -0.00436688 0.0 
0.0446155 -0.00166537 0.0 
-0.00397858 -0.00861657 0.0 
0.034388 0.00282517 0.0 
0.0082551 -0.00885134 0.0 
0.0262614 0.0028423 0.0 
0 0 0.0 
0.0329151 -0.00726067 0.0 
0.553422 0.0132313 0.0 
-0.0197104 -0.0122861 0.0 
0 0 0.0 
0.00267326 0.000471887 0.0 
0.00316961 -0.00059369 0.0 
0.00395268 -0.0087215 0.0 
0.748478 0.00764307 0.0 
0.199146 0.00541578 0.0 
0.0294179 -0.00654045 0.0 
-0.0287038 -0.0101614 0.0 
0.108464 -0.0179893 0.0 
0.380951 0.0127876 0.0 
0.076872 -0.000394615 0.0 
0 0 0.0 
-0.011735 -0.00646192 0.0 
-0.00198167 -0.00634145 0.0 
0.713571 0.0109344 0.0 
0.0442513 0.00609756 0.0 
0.00442529 -0.00285058 0.0 
-0.0159854 -0.00639447 0.0 
0.0730053 0.00152505 0.0 
-0.000581694 -0.000456557 0.0 
-0.0011234 -0.000642354 0.0 
0.0776943 0.00875951 0.0 
0.233731 0.0112953 0.0 
0.0170331 0.00301906 0.0 
0.0793481 -0.00248885 0.0 
0.102163 -0.00125889 0.0 
0 0 0.0 
0.0220688 -0.00810711 0.0 
0.0965575 0.00845411 0.0 
0.0798292 -0.0166078 0.0 
-0.000202063 -0.00514221 0.0 
0.0277143 0.00154819 0.0 
0.00358648 -0.000443987 0.0 
-0.00316877 -0.0095205 0.0 
-0.00791887 -0.00152598 0.0 
-0.000320919 -0.0089787 0.0 
-0.0184407 -0.00721942 0.0 
0.0776988 0.00889753 0.0 
0.119152 -0.018212 0.0 
0.00439685 -0.00805402 0.0 
0.00314354 -0.00908046 0.0 
0.518663 0.0132537 0.0 
0.0893893 -0.00252372 0.0 
-0.0317141 -0.00746172 0.0 
0.0195679 -0.00234479 0.0 
0.560469 0.0128017 0.0 
-0.0136983 -0.00854506 0.0 
-0.00878634 -0.00681718 0.0 
-0.00667013 -0.00920358 0.0 
-0.0233048 -0.00622555 0.0 
0.0876923 -0.00232536 0.0 
0.0225683 -0.00812238 0.0 
0.0107357 -0.00422333 0.0 
0.050137 0.00392655 0.0 
0.0263432 -0.00697113 0.0 
0.501651 0.01327 0.0 
0.407012 0.0145647 0.0 
-0.0135486 -0.00838035 0.0 
0.116212 0.0110974 0.0 
0 0 0.0 
0.111132 0.010728 0.0 
0.146248 0.0065984 0.0 
-0.0173706 -0.00739885 0.0 
-0.00452386 -0.00207513 0.0 
-0.00775999 -0.00197616 0.0 
-0.0072033 -0.002663 0.0 
-0.0331554 -0.0082845 0.0 
0 0 0.0 
0.169193 0.00414546 0.0 
0.78073 0.00835073 0.0 
0.524233 0.0132087 0.0 
0.208008 0.00483629 0.0 
0.0114693 0.00102626 0.0 
0.0191537 -0.00858502 0.0 
0.0388064 0.00178903 0.0 
0 0 0.0 
0.207737 0.0109498 0.0 
-0.013842 -0.00601527 0.0 
0.0255161 -0.00398129 0.0 
0 0 0.0 
0.0428987 -0.0037628 0.0 
-0.0260997 -0.0123037 0.0 
0.0174415 -0.00454641 0.0 
0.994025 -0.0414261 0.0 
-0.0295724 -0.00836413 0.0 
0.093494 0.00860528 0.0 
0.376072 0.0139747 0.0 
0.484043 0.0132023 0.0 
0.0479553 -0.0057665 0.0 
0.0460741 0.00325796 0.0 