<VTKFile type="UnstructuredGrid" version="0.1" byte_order="LittleEndian">
  <UnstructuredGrid>
    <Piece NumberOfPoints="13987" NumberOfCells="27360">
      <Points>
        <DataArray type = "Float64" NumberOfComponents="3" format="ascii">
0.99203 1.0026 0.0 
0.981622 0.968983 0.0 
0.997806 0.986108 0.0 
0.669895 1.10169 0.0 
1.00089 1.00229 0.0 
0.995391 1.01262 0.0 
0.994704 0.980096 0.0 
0.986225 1.02004 0.0 
1.00076 1.00309 0.0 
1.00494 0.990252 0.0 
0.845362 0.854521 0.0 
0.997389 1.00838 0.0 
0.990635 1.00448 0.0 
0.996317 1.00742 0.0 
0.99206 0.988144 0.0 
1.00684 0.994939 0.0 
0.773565 1.13564 0.0 
0.995214 1.00639 0.0 
0.989331 1.00791 0.0 
1.00535 1.00622 0.0 
1.00143 0.989457 0.0 
0.998918 1.01176 0.0 
0.996629 1.01294 0.0 
0.999459 0.996921 0.0 
0.99887 1.00771 0.0 
1.00535 0.995922 0.0 
0.991249 1.00155 0.0 
0.996478 0.991707 0.0 
0.952781 0.969565 0.0 
0.996638 1.00641 0.0 
0.997485 0.995591 0.0 
1.00177 0.991174 0.0 
1.00333 1.00745 0.0 
0.994382 0.993341 0.0 
1.00191 1.00778 0.0 
0.931004 1.02774 0.0 
0.982768 0.992763 0.0 
0.994878 1.01076 0.0 
1.00905 0.993942 0.0 
0.99446 1.00261 0.0 
0.992938 0.993595 0.0 
1.00675 1.00596 0.0 
0.996636 1.00903 0.0 
0.894102 0.964356 0.0 
0.991911 1.0018 0.0 
0.997981 0.990262 0.0 
1.00006 1.00049 0.0 
0.933368 0.905837 0.0 
1.33114 1.64839 0.0 
0.992518 1.00739 0.0 
1.00104 1.00249 0.0 
0.998692 0.999866 0.0 
0.985268 0.997185 0.0 
0.995 1.00063 0.0 
0.992274 1.00056 0.0 
0.979492 1.00052 0.0 
0.978226 0.994997 0.0 
0.996991 1.01198 0.0 
1.00008 0.999253 0.0 
0.996891 1.0033 0.0 
0.870409 1.04934 0.0 
0.986271 0.988988 0.0 
0.982733 0.994147 0.0 
0.998863 0.987829 0.0 
0.992471 0.996907 0.0 
0.997039 1.00234 0.0 
0.994452 1.00332 0.0 
1.00231 0.989822 0.0 
0.988954 1.01251 0.0 
1.00167 0.987791 0.0 
0.885493 0.978322 0.0 
0.993224 1.01137 0.0 
0.710282 1.38692 0.0 
0.990495 0.989894 0.0 
1 0.999746 0.0 
0.998764 0.996579 0.0 
1.00325 1.0066 0.0 
1.00012 0.993866 0.0 
0.297653 1.35992 0.0 
0.999166 0.991311 0.0 
1.00439 0.996193 0.0 
1.00232 1.00368 0.0 
1.00032 0.997654 0.0 
0.990033 0.998405 0.0 
1.00544 0.990896 0.0 
0.989265 1.00703 0.0 
0.994103 1.00938 0.0 
1.00336 1.00437 0.0 
0.999429 0.996166 0.0 
0.994343 0.989 0.0 
1.00234 0.996293 0.0 
0.993125 1.01551 0.0 
1.00536 1.00674 0.0 
0.983589 0.999465 0.0 
0.999055 1.00693 0.0 
0.471178 1.24235 0.0 
1.00068 0.987947 0.0 
0.996082 1.00482 0.0 
1.00379 1.00462 0.0 
0.997353 0.991719 0.0 
1.00466 0.990715 0.0 
1.0049 1.00519 0.0 
1.0081 0.981851 0.0 
0.996311 0.993185 0.0 
0.992863 1.00296 0.0 
0.986834 0.997932 0.0 
0.922451 0.972484 0.0 
0.994426 0.986704 0.0 
0.997071 1.00111 0.0 
0.988293 1.00008 0.0 
0.880724 0.952172 0.0 
0.997795 0.998798 0.0 
0.995957 0.990889 0.0 
1.002 0.994636 0.0 
0.990744 1.00597 0.0 
0.990619 1.00265 0.0 
0.993211 1.00163 0.0 
1.00011 1.00074 0.0 
0.99683 0.987065 0.0 
1.00027 1.00758 0.0 
1.00082 1.00781 0.0 
1.00344 0.996514 0.0 
0.932169 1.03879 0.0 
1.0056 0.99263 0.0 
0.991725 0.998484 0.0 
0.975004 1.0178 0.0 
1.00252 1.00622 0.0 
0.998285 1.007 0.0 
0.999632 1.00648 0.0 
0.997406 0.997316 0.0 
0.987572 1.00831 0.0 
0.999534 0.971855 0.0 
0.992751 1.00375 0.0 
0.997371 0.998154 0.0 
0.998456 0.993704 0.0 
1.0092 0.994581 0.0 
0.998621 0.985531 0.0 
1.00623 0.992835 0.0 
0.982576 1.00652 0.0 
0.986913 1.00606 0.0 
1.00298 0.996698 0.0 
0.98595 0.990525 0.0 
0.991705 1.00103 0.0 
0.994798 0.988053 0.0 
1.00681 0.995589 0.0 
0.9971 1.01041 0.0 
0.988058 0.995493 0.0 
0.990593 0.986474 0.0 
1.00487 0.996052 0.0 
0.992289 0.990211 0.0 
0.991348 0.989247 0.0 
1.00318 0.989744 0.0 
0.99683 0.990956 0.0 
0.928538 1.01671 0.0 
0.997236 0.989656 0.0 
0.994163 0.990745 0.0 
0.963889 0.985398 0.0 
0.990687 0.997723 0.0 
0.991005 0.98519 0.0 
1.00152 0.995856 0.0 
1.0007 0.992905 0.0 
0.958756 0.991867 0.0 
0.994909 1.01383 0.0 
0.994044 1.0039 0.0 
1.00697 0.97663 0.0 
0.986202 0.996962 0.0 
0.989195 0.987781 0.0 
0.857566 1.03915 0.0 
0.995886 0.987715 0.0 
0.988365 0.986468 0.0 
1.43046 1.82041 0.0 
1.00843 0.530574 0.0 
1.00227 0.994048 0.0 
0.99332 1.00968 0.0 
0.974016 1.00145 0.0 
0.993038 0.987166 0.0 
1.00515 0.993143 0.0 
0.995614 0.986832 0.0 
0.99469 0.985157 0.0 
1.00632 0.984628 0.0 
1.00355 0.993546 0.0 
1.00383 0.990978 0.0 
0.998119 0.997875 0.0 
0.983003 1.00169 0.0 
0.999575 0.98961 0.0 
0.992385 0.989296 0.0 
1.00527 0.989346 0.0 
0.990916 0.987878 0.0 
0.991299 1.00224 0.0 
1.00321 0.988746 0.0 
1.00329 0.99431 0.0 
0.980399 1.00677 0.0 
1.0001 0.997187 0.0 
0.999801 0.969108 0.0 
1.00129 1.00841 0.0 
1.00235 1.00888 0.0 
1.00493 0.992413 0.0 
0.989758 0.996741 0.0 
0.992036 1.01162 0.0 
0.991672 0.986747 0.0 
0.997942 1.003 0.0 
0.923414 0.988515 0.0 
0.995843 1.00822 0.0 
1.00179 1.00392 0.0 
0.991346 0.99791 0.0 
1.00456 0.994957 0.0 
1.00538 0.992045 0.0 
0.997439 0.99644 0.0 
0.98651 1.00407 0.0 
0.996887 1.00168 0.0 
1.00226 0.988824 0.0 
0.989924 0.981001 0.0 
1.00113 0.990045 0.0 
1.00553 0.993786 0.0 
0.998995 0.986708 0.0 
0.997211 1.00506 0.0 
1.00018 0.986823 0.0 
1.04348 0.810431 0.0 
1.00222 0.99342 0.0 
0.993987 1.00479 0.0 
1.00977 0.995101 0.0 
1.00577 0.993233 0.0 
0.756183 1.03661 0.0 
0.985549 1.01166 0.0 
0.984601 1.00588 0.0 
0.996266 1.0105 0.0 
0.98505 1.01314 0.0 
0.978906 1.01068 0.0 
1.06732 0.441329 0.0 
0.988065 0.998927 0.0 
0.990626 1.00182 0.0 
0.910037 0.967078 0.0 
0.969042 1.00519 0.0 
1.00285 1.00837 0.0 
1.00016 0.999016 0.0 
1.00248 0.992725 0.0 
1.00177 0.99531 0.0 
0.720989 1.27023 0.0 
0.960663 1.0126 0.0 
1.00399 0.992983 0.0 
0.995787 0.99392 0.0 
0.995507 0.991526 0.0 
1.00136 0.988578 0.0 
0.974144 0.956935 0.0 
0.982775 1.01181 0.0 
0.957371 1.01124 0.0 
1.00391 0.989456 0.0 
1.00579 1.0069 0.0 
0.813283 0.984135 0.0 
1.00018 1.00098 0.0 
1.00343 1.01089 0.0 
0.993273 1.00733 0.0 
0.987469 1.00076 0.0 
0.98684 0.985768 0.0 
0.573708 1.18052 0.0 
1.00493 1.00845 0.0 
0.98224 0.997868 0.0 
0.987977 0.998042 0.0 
0.988746 1.0017 0.0 
1.00559 1.00549 0.0 
0.991764 1.01267 0.0 
0.992972 0.98383 0.0 
1.00025 1.00528 0.0 
1.00471 0.981237 0.0 
0.98048 1.0099 0.0 
0.994195 1.00865 0.0 
0.993177 1.01048 0.0 
0.997268 0.998909 0.0 
0.999015 1.00547 0.0 
0.939452 1.03349 0.0 
0.984244 1.01168 0.0 
0.991829 1.00696 0.0 
0.862261 1.01518 0.0 
0.976797 0.996605 0.0 
1.00275 0.996797 0.0 
0 2 0.0 
0.989134 1.00447 0.0 
1.00761 1.00761 0.0 
0.98036 1.00386 0.0 
0.995981 0.997032 0.0 
1.00269 0.990814 0.0 
0.747766 0.922978 0.0 
1.00475 1.00777 0.0 
1.00616 0.979792 0.0 
0.993665 0.99389 0.0 
0.9913 0.990611 0.0 
0.955562 1.00838 0.0 
0.990022 0.999866 0.0 
0.982312 1.00839 0.0 
0.996294 1.00013 0.0 
0.987733 1.00463 0.0 
1.00375 1.00532 0.0 
1.00373 1.01013 0.0 
0.991202 0.991927 0.0 
0.999467 1.00247 0.0 
0.992795 0.992053 0.0 
0.996552 0.989105 0.0 
0.988903 0.992135 0.0 
0.890161 1.08343 0.0 
0.995039 0.99662 0.0 
0.983906 0.998567 0.0 
1.00156 1.00303 0.0 
0.997581 1.01479 0.0 
0.990921 1.0052 0.0 
0.874081 1.03067 0.0 
1.00463 0.996121 0.0 
0.961663 0.988852 0.0 
0.989443 0.973192 0.0 
1.00452 0.983991 0.0 
1.00172 1.01162 0.0 
0.984562 0.997861 0.0 
0.926888 1.05737 0.0 
0.990327 0.999251 0.0 
0.994767 1.00982 0.0 
0.988329 1.00417 0.0 
1.00673 0.989362 0.0 
1.00108 0.987 0.0 
1.00144 0.993031 0.0 
0.983262 1.0004 0.0 
0.98343 1.00862 0.0 
0.978315 0.977506 0.0 
0.956539 1.01473 0.0 
0.995456 1.00445 0.0 
0.974806 0.978099 0.0 
0.972583 1.01677 0.0 
0.717175 1.00202 0.0 
0.989966 1.00137 0.0 
0.96369 1.02222 0.0 
0.855119 1.06622 0.0 
1.00748 0.983998 0.0 
0.9974 1.01135 0.0 
0.999361 0.998855 0.0 
1.00356 0.991506 0.0 
0.991426 1.0039 0.0 
0.891093 1.05744 0.0 
0.971336 0.995245 0.0 
0.998761 1.00051 0.0 
0.971939 1.00087 0.0 
0.994865 1.00208 0.0 
0.995689 0.995536 0.0 
0.938857 1.00384 0.0 
0.981206 1.00835 0.0 
0.991743 0.977657 0.0 
0.989283 0.991367 0.0 
0.993302 0.978592 0.0 
1.00675 0.994223 0.0 
0.990235 0.99194 0.0 
0.992742 1.00818 0.0 
0.975654 0.989584 0.0 
0.999666 0.987797 0.0 
0.966675 0.988033 0.0 
0.989766 1.00043 0.0 
0.994708 0.998911 0.0 
1.00387 0.982904 0.0 
0.994675 1.00139 0.0 
1.0061 0.992089 0.0 
0.994191 1.01158 0.0 
0.983165 0.984785 0.0 
0.923853 0.89412 0.0 
0.987036 0.982178 0.0 
1.09666 0.626081 0.0 
1.00038 0.998572 0.0 
0.982071 1.00992 0.0 
0.843666 1.04921 0.0 
0.995594 0.996214 0.0 
0.993148 1.00454 0.0 
0.996174 0.996223 0.0 
0.984864 1.00996 0.0 
0.963784 0.996707 0.0 
1.00799 0.988514 0.0 
0.977005 1.00913 0.0 
0.996882 1.00573 0.0 
0.915673 1.00801 0.0 
0.984856 0.989745 0.0 
1.00197 0.992862 0.0 
1.00628 1.00578 0.0 
1.00075 0.988871 0.0 
0.997169 0.990366 0.0 
0.987647 0.999796 0.0 
1.09478 0.283328 0.0 
0.987026 1.00204 0.0 
0.995316 1.00547 0.0 
1.00211 1.01031 0.0 
0.996707 0.997658 0.0 
1.00266 0.987712 0.0 
1.01027 0.995037 0.0 
0.791283 0.977954 0.0 
0.992116 1.00342 0.0 
1.00616 0.982575 0.0 
0.99319 0.991067 0.0 
0.991122 0.996199 0.0 
0.999679 1.01188 0.0 
0.993382 0.989685 0.0 
0.994828 0.977948 0.0 
0.903249 0.913243 0.0 
0.992734 0.997626 0.0 
0.995118 0.989168 0.0 
1.00199 1.00854 0.0 
0.997521 1.00161 0.0 
0.995296 1.0189 0.0 
0.983615 1.00557 0.0 
0.994113 0.983762 0.0 
1.00274 1.00916 0.0 
0.996685 0.985524 0.0 
0.99577 1.01178 0.0 
0.995675 1.00069 0.0 
1.00174 1.0032 0.0 
0.99806 0.99693 0.0 
0.998548 0.927134 0.0 
0.998934 0.998113 0.0 
0.99863 0.999196 0.0 
1.00034 1.01197 0.0 
0.998608 1.01005 0.0 
1.0006 1.00188 0.0 
0.983119 0.998183 0.0 
0.984692 1.0082 0.0 
0.597401 1.30548 0.0 
0.998787 0.996078 0.0 
0.999832 0.994607 0.0 
0.97113 0.992014 0.0 
0.989865 1.00398 0.0 
0.9666 0.884305 0.0 
0.995192 1.00704 0.0 
1.00193 1.00337 0.0 
0.969078 0.993481 0.0 
0.98955 1.01841 0.0 
0.998342 1.00551 0.0 
0.972547 0.997233 0.0 
0.744168 0.886513 0.0 
0.989732 0.992646 0.0 
0.987841 0.996785 0.0 
1.00422 1.00564 0.0 
1.00104 0.997828 0.0 
0.997448 0.98796 0.0 
0.998064 0.987355 0.0 
1.00787 0.993249 0.0 
1.00412 1.00875 0.0 
0.993757 1.00126 0.0 
1.00594 0.994411 0.0 
0.988603 0.999331 0.0 
1.0046 1.00912 0.0 
0.983766 1.00274 0.0 
1.00715 0.993679 0.0 
[...]
<PointData>
  <DataArray type = "Float64" Name="Vitesse" NumberOfComponents="3" format="ascii">
0.680229 0.268852 0.0 
0.844888 -0.0325109 0.0 
0.710426 -0.0918743 0.0 
0.995758 0.0138069 0.0 
0 0 0.0 
0.915794 0.361665 0.0 
0.768418 -0.0699806 0.0 
0.939496 0.224192 0.0 
0.341015 0.374862 0.0 
0.702715 -0.196633 0.0 
0.978933 -0.0052193 0.0 
0.851379 0.465755 0.0 
0.740324 0.270053 0.0 
0.803571 0.444654 0.0 
0.708724 -0.0175633 0.0 
0.18109 -0.0409183 0.0 
0.99795 0.0222589 0.0 
0.759651 0.411029 0.0 
0.810877 0.271569 0.0 
0.386277 0.172378 0.0 
0.67668 -0.153166 0.0 
0.957268 0.430529 0.0 
0.936093 0.376501 0.0 
0.311603 -0.126597 0.0 
0.864034 0.530215 0.0 
0 0 0.0 
0.677449 0.232615 0.0 
0.620815 -0.0561999 0.0 
0.898486 0.0121809 0.0 
0.767723 0.467325 0.0 
0.477246 -0.0337429 0.0 
0.651521 -0.177024 0.0 
0.948544 0.538529 0.0 
0.612785 0.00851896 0.0 
0.968966 0.587331 0.0 
0.957292 0.0701685 0.0 
0.770279 0.0721161 0.0 
0.877288 0.372028 0.0 
0.282498 -0.0554694 0.0 
0.622406 0.335677 0.0 
0.634359 0.0354357 0.0 
0 0 0.0 
0.857607 0.433374 0.0 
0.952837 0.0168572 0.0 
0.667089 0.249331 0.0 
0.646543 -0.0940324 0.0 
0 0 0.0 
0.953128 -0.0192534 0.0 
1.0123 -0.0011146 0.0 
0.790982 0.332631 0.0 
0 0 0.0 
0.170534 0.289459 0.0 
0.746269 0.118898 0.0 
0.539119 0.278271 0.0 
0.637453 0.223628 0.0 
0.810938 0.129572 0.0 
0.806017 0.0881298 0.0 
0.926206 0.396017 0.0 
0 0 0.0 
0.594085 0.476784 0.0 
0.980832 0.0393035 0.0 
0.749987 0.0301383 0.0 
0.769777 0.0844569 0.0 
0.688959 -0.106954 0.0 
0.614154 0.117104 0.0 
0.520586 0.457766 0.0 
0.648488 0.352895 0.0 
0.679867 -0.16896 0.0 
0.877179 0.26908 0.0 
0.700703 -0.144339 0.0 
0.957692 0.0230737 0.0 
0.875619 0.336302 0.0 
1.0057 0.0107673 0.0 
0.706056 0.01207 0.0 
0 0 0.0 
0.372357 -0.0808586 0.0 
0.830309 0.491455 0.0 
0.549293 -0.17106 0.0 
1.00045 0.00353448 0.0 
0.62511 -0.121813 0.0 
0 0 0.0 
0 0 0.0 
0.144253 -0.117504 0.0 
0.674476 0.152284 0.0 
0.696745 -0.202096 0.0 
0.796966 0.26656 0.0 
0.841542 0.366193 0.0 
0 0 0.0 
0.394557 -0.142575 0.0 
0.68285 -0.0381978 0.0 
0.24008 -0.11537 0.0 
0.932842 0.305518 0.0 
0.577074 0.266456 0.0 
0.772529 0.138147 0.0 
0.84019 0.560501 0.0 
1.00017 0.0070185 0.0 
0.693263 -0.132762 0.0 
0.692292 0.446261 0.0 
0 0 0.0 
0.615276 -0.0769638 0.0 
0.693881 -0.199986 0.0 
0 0 0.0 
0.774465 -0.163193 0.0 
0.585917 -0.0372522 0.0 
0.671448 0.295608 0.0 
0.727852 0.133096 0.0 
0.933756 0.02202 0.0 
0.710594 -0.0509711 0.0 
0.431256 0.385244 0.0 
0.716906 0.173116 0.0 
0.959066 0.0116577 0.0 
0.296336 0.15922 0.0 
0.641778 -0.0512673 0.0 
0.524157 -0.218569 0.0 
0.768516 0.286427 0.0 
0.707466 0.243501 0.0 
0.630045 0.271222 0.0 
0 0 0.0 
0.699297 -0.0790859 0.0 
0.907007 0.576875 0.0 
0.934584 0.578986 0.0 
0 0 0.0 
0.967786 0.0736185 0.0 
0.621479 -0.189533 0.0 
0.63451 0.16093 0.0 
0.91539 0.161429 0.0 
0.821808 0.537806 0.0 
0.820894 0.527563 0.0 
0.840043 0.599207 0.0 
0.393366 0.0461088 0.0 
0.823155 0.247115 0.0 
0.814553 -0.101557 0.0 
0.694298 0.307771 0.0 
0.360808 0.11172 0.0 
0.548949 -0.103227 0.0 
0.14023 -0.0227761 0.0 
0.717327 -0.101042 0.0 
0.58686 -0.170446 0.0 
0.828025 0.186069 0.0 
0.79783 0.226885 0.0 
0 0 0.0 
0.746423 0.0448181 0.0 
0.659189 0.227488 0.0 
0.692839 -0.0494745 0.0 
0 0 0.0 
0.898186 0.423047 0.0 
0.707114 0.0982922 0.0 
0.733251 -0.0156999 0.0 
0 0 0.0 
0.685159 -0.00234617 0.0 
0.703848 -0.00168713 0.0 
0.690134 -0.178599 0.0 
0.635252 -0.068414 0.0 
0.948101 0.0628238 0.0 
0.659065 -0.0807076 0.0 
0.659602 -0.0215574 0.0 
0.867259 0.0415709 0.0 
0.658449 0.139468 0.0 
0.741292 -0.0260691 0.0 
0.386977 -0.193569 0.0 
0.593284 -0.17727 0.0 
0.883152 0.0580429 0.0 
0.927977 0.341891 0.0 
0.677341 0.349326 0.0 
0.798468 -0.144481 0.0 
0.733983 0.118058 0.0 
0.733372 0.00382428 0.0 
0.979229 0.03427 0.0 
0.6929 -0.0652454 0.0 
0.747673 -7.16159e-05 0.0 
1.00957 -0.000506007 0.0 
1.00368 -0.00841529 0.0 
0.565033 -0.219454 0.0 
0.843822 0.347443 0.0 
0.844851 0.115248 0.0 
0.712382 -0.0337577 0.0 
0.590545 -0.186488 0.0 
0.704737 -0.0644933 0.0 
0.72615 -0.0592806 0.0 
0.753114 -0.164303 0.0 
0.5923 -0.210972 0.0 
0.681851 -0.198639 0.0 
0.306937 0.0488024 0.0 
0.78993 0.15588 0.0 
0.662335 -0.123462 0.0 
0.694224 -0.0118193 0.0 
0.715237 -0.189875 0.0 
0.719557 -0.00885861 0.0 
0.688024 0.247752 0.0 
0.701646 -0.168896 0.0 
0.526436 -0.198992 0.0 
0.840456 0.170994 0.0 
0.246212 -0.149758 0.0 
0.82746 -0.101977 0.0 
0.967448 0.564317 0.0 
1.01316 0.554637 0.0 
0.645708 -0.203101 0.0 
0.677313 0.118275 0.0 
0.873732 0.315094 0.0 
0.724325 -0.0230594 0.0 
0.546872 0.550392 0.0 
0.935292 0.0367366 0.0 
0.824609 0.421013 0.0 
0.310569 0.252616 0.0 
0.642937 0.144828 0.0 
0.345763 -0.113769 0.0 
0.659673 -0.200935 0.0 
0.436339 -0.00205834 0.0 
0.777712 0.206191 0.0 
0.479071 0.412378 0.0 
0.692434 -0.158892 0.0 
0.774611 -0.0363088 0.0 
0.664942 -0.153492 0.0 
0.500258 -0.15102 0.0 
0.703942 -0.106929 0.0 
0.705123 0.506983 0.0 
0.705458 -0.12179 0.0 
1.00446 -0.0358453 0.0 
0.598372 -0.216254 0.0 
0.708634 0.359615 0.0 
0 0 0.0 
0.560046 -0.167523 0.0 
0.988842 0.0177715 0.0 
0.866888 0.230604 0.0 
0.810872 0.200369 0.0 
0.88774 0.403727 0.0 
0.881484 0.226259 0.0 
0.871281 0.174396 0.0 
1.0055 -0.00618193 0.0 
0.713249 0.153015 0.0 
0.694129 0.228621 0.0 
0.943493 0.0183475 0.0 
0.875114 0.113422 0.0 
1.01331 0.564735 0.0 
0 0 0.0 
0.625799 -0.209745 0.0 
0.459304 -0.210927 0.0 
1.00408 0.0146668 0.0 
0.912797 0.105922 0.0 
0.621873 -0.209621 0.0 
0.574589 -0.0117936 0.0 
0.633012 -0.0371974 0.0 
0.68879 -0.1455 0.0 
0.883696 -0.0323797 0.0 
0.871825 0.204967 0.0 
0.914358 0.0966442 0.0 
0.701301 -0.182233 0.0 
0.562749 0.249433 0.0 
0.978249 0.017251 0.0 
0 0 0.0 
1.06746 0.494257 0.0 
0.788516 0.351411 0.0 
0.734319 0.176593 0.0 
0.761334 0.00419663 0.0 
0.999037 0.0101697 0.0 
0.990774 0.480517 0.0 
0.779681 0.118294 0.0 
0.711066 0.138282 0.0 
0.724619 0.202576 0.0 
0 0 0.0 
0.888217 0.306218 0.0 
0.743989 -0.0478953 0.0 
0.781234 0.647706 0.0 
0.767655 -0.142195 0.0 
0.861849 0.183015 0.0 
0.824258 0.372341 0.0 
0.859364 0.340605 0.0 
0.350724 0.183964 0.0 
0.762309 0.603962 0.0 
0.961358 0.081032 0.0 
0.868595 0.217838 0.0 
0.783294 0.315259 0.0 
0.972719 0.0308871 0.0 
0.817544 0.0962424 0.0 
0 0 0.0 
1 0 0.0 
0.756726 0.24408 0.0 
0.534945 0.200438 0.0 
0.821909 0.155621 0.0 
0.483205 0.0805083 0.0 
0.669824 -0.185913 0.0 
0.985511 0.00715164 0.0 
0.902154 0.449326 0.0 
0.779928 -0.146858 0.0 
0.616572 0.0306818 0.0 
0.691291 0.0121405 0.0 
0.911382 0.0887407 0.0 
0.683714 0.182493 0.0 
0.84448 0.192302 0.0 
0.44866 0.280655 0.0 
0.772856 0.22587 0.0 
0.356217 0.202013 0.0 
1.07068 0.514241 0.0 
0.679661 0.0288982 0.0 
0.409956 0.582512 0.0 
0.656794 0.0129698 0.0 
0.67044 -0.0705921 0.0 
0.70744 0.0484276 0.0 
0.992268 0.0464734 0.0 
0.532257 0.0825249 0.0 
0.765741 0.130346 0.0 
0 0 0.0 
0.972 0.362386 0.0 
0.751526 0.283487 0.0 
0.974183 0.0378945 0.0 
0 0 0.0 
0.873941 0.051385 0.0 
0.815559 -0.05279 0.0 
0.749131 -0.150138 0.0 
1.02319 0.466247 0.0 
0.756412 0.124976 0.0 
0.983647 0.0682748 0.0 
0.672748 0.171846 0.0 
0.856286 0.378134 0.0 
0.760838 0.229151 0.0 
0.725546 -0.19378 0.0 
0.706962 -0.133242 0.0 
0.60101 -0.198172 0.0 
0.780378 0.145739 0.0 
0.842094 0.202918 0.0 
0.829624 -0.00187408 0.0 
0.922695 0.0991695 0.0 
0.679095 0.413312 0.0 
0.83949 0.00784373 0.0 
0.912244 0.149832 0.0 
0.989337 0.0127569 0.0 
0.700493 0.211461 0.0 
0.93528 0.122407 0.0 
0.986413 0.0356436 0.0 
0.761479 -0.167681 0.0 
0.922045 0.413114 0.0 
0.0799383 0.0638467 0.0 
0.669715 -0.203233 0.0 
0.718398 0.278479 0.0 
0.982247 0.0477185 0.0 
0.843928 0.0806923 0.0 
0.199661 0.388787 0.0 
0.852367 0.106604 0.0 
0.590337 0.333573 0.0 
0.53394 0.0299372 0.0 
0.927845 0.0615555 0.0 
0.848312 0.183616 0.0 
0.789156 -0.0559025 0.0 
0.707933 0.0370428 0.0 
0.780757 -0.063292 0.0 
0.353704 -0.090175 0.0 
0.692094 0.0373 0.0 
0.809416 0.33854 0.0 
0.819844 0.055179 0.0 
0.691293 -0.118214 0.0 
0.858181 0.0497828 0.0 
0.694033 0.191483 0.0 
0.527981 0.187852 0.0 
0.75439 -0.141974 0.0 
0.574795 0.3022 0.0 
0.649218 -0.190917 0.0 
0.886585 0.351832 0.0 
0.787076 0.014245 0.0 
0.959952 -0.0172794 0.0 
0.77937 -0.0154868 0.0 
1.00782 -0.0120208 0.0 
0 0 0.0 
0.857669 0.195248 0.0 
0.983043 0.0317539 0.0 
0.519961 0.055326 0.0 
0.710675 0.330304 0.0 
0.497474 0.0397124 0.0 
0.850879 0.22058 0.0 
0.873677 0.0761638 0.0 
0.739204 -0.190608 0.0 
0.867178 0.158708 0.0 
0.739351 0.484804 0.0 
0.950109 0.0481131 0.0 
0.758788 0.0419222 0.0 
0.614238 -0.204723 0.0 
0 0 0.0 
0.680766 -0.138828 0.0 
0.645956 -0.0776836 0.0 
0.724981 0.16414 0.0 
1.00537 -0.00342433 0.0 
0.751615 0.189808 0.0 
0.724495 0.414576 0.0 
1.02356 0.50748 0.0 
0.426111 0.0956665 0.0 
0.708245 -0.154687 0.0 
0 0 0.0 
0.981286 0.0148661 0.0 
0.696732 0.286275 0.0 
0.764208 -0.15511 0.0 
0.665018 -0.0042896 0.0 
0.650003 0.104607 0.0 
0.975273 0.438406 0.0 
0.681234 -0.020395 0.0 
0.782578 -0.07371 0.0 
0.958221 -0.00593974 0.0 
0.604262 0.137388 0.0 
0.675925 -0.0480029 0.0 
0.994304 0.565763 0.0 
0.43507 0.450975 0.0 
0.981831 0.296703 0.0 
0.814154 0.189533 0.0 
0.740982 -0.0578681 0.0 
1.03013 0.546122 0.0 
0.717927 -0.0795381 0.0 
0.906086 0.377764 0.0 
0.50531 0.29964 0.0 
0 0 0.0 
0.377423 -0.0146932 0.0 
0.933829 -0.0784394 0.0 
0.207225 0.00943533 0.0 
0.177098 0.182257 0.0 
0.991382 0.444462 0.0 
0.920188 0.462309 0.0 
0 0 0.0 
0.772274 0.123769 0.0 
0.833241 0.213262 0.0 
1.00218 0.0100267 0.0 
0.413511 -0.0960047 0.0 
0.509589 -0.166401 0.0 
0.842038 0.0663448 0.0 
0.740536 0.250184 0.0 
0.962847 -0.0381802 0.0 
0.782198 0.408493 0.0 
0 0 0.0 
0.851745 0.0710062 0.0 
0.93978 0.254826 0.0 
0.746927 0.565926 0.0 
0.84153 0.0918792 0.0 
0.986261 0.00398327 0.0 
0.693552 0.0500954 0.0 
0.71031 0.117782 0.0 
0.380479 0.198866 0.0 
0 0 0.0 
0.686235 -0.0864464 0.0 
0.694681 -0.0953188 0.0 
0.466021 -0.114795 0.0 
1.03529 0.524864 0.0 
0.604446 0.272797 0.0 
0.366236 -0.101701 0.0 
0.706563 0.162637 0.0 
1.05352 0.510379 0.0 
0.790309 0.169969 0.0 
0.432197 -0.109857 0.0 
0.970882 -0.0133751 0.0 
0.769828 -0.120732 0.0 
0.90068 0.543138 0.0 
0.902098 -0.0352559 0.0 
0.747451 -0.158431 0.0 
0.880513 -0.0780807 0.0 
0.993265 0.0294653 0.0 
0.736117 -0.0797872 0.0 
0.902567 0.0876554 0.0 
0.7241 0.522499 0.0 
0.493294 0.254256 0.0 
0.771359 0.240078 0.0 
0.593971 0.0254229 0.0 
0.73494 -0.188577 0.0 
0.605287 0.523267 0.0 
0.785095 0.196139 0.0 
0.661619 0.121037 0.0 
0.707038 0.05873 0.0 
0.875887 0.0288406 0.0 
0.775515 0.0240495 0.0 
0.79665 -0.0668683 0.0 
0 0 0.0 
0.952935 0.270442 0.0 
0.784111 0.371984 0.0 
0.817489 0.317825 0.0 
0.659435 -0.107297 0.0 
0.741122 -0.185079 0.0 
0.650601 0.00276538 0.0 
0.76238 0.0187266 0.0 
0.906227 0.00816546 0.0 
0.684887 -0.0736375 0.0 
0.271557 0.110293 0.0 
0.852132 -0.108637 0.0 
0.62669 -0.00424311 0.0 
0.965795 -0.0724548 0.0 
0.651005 0.421675 0.0 
0.604953 0.19064 0.0 
0.718235 -0.127261 0.0 
0.874163 0.142874 0.0 
0.845344 0.501191 0.0 
0.907993 0.226884 0.0 
0.946695 0.0020568 0.0 
0.907046 0.347024 0.0 
0.213064 -0.0964759 0.0 
0 0 0.0 
0.52529 -0.0790268 0.0 
0.576056 -0.118279 0.0 
0.738491 0.0258586 0.0 
0.578688 0.634463 0.0 
0.919218 0.139817 0.0 
0.751257 0.105613 0.0 
0.842474 0.292244 0.0 
0.944934 -0.0765222 0.0 
0.900341 -0.0764344 0.0 
0.590383 0.215507 0.0 
0.998094 -0.0381766 0.0 
0.78595 0.0684399 0.0 
0.482941 0.00645892 0.0 
0.75884 -0.0279973 0.0 
1.00533 -0.0295364 0.0 
0.991991 0.513686 0.0 
0.772468 -0.0246788 0.0 
0.200127 -0.0528098 0.0 
0.663552 -0.0932652 0.0 
0.763232 -0.0123728 0.0 
0.583708 0.0722375 0.0 
0.770357 0.19304 0.0 
0.714626 -0.141403 0.0 
0.747019 0.148244 0.0 
0.928752 0.0317228 0.0 
0.771084 0.388423 0.0 
0.654792 0.581412 0.0 
0.410954 -0.164869 0.0 
0.739222 -0.152652 0.0 
0.996852 0.000238927 0.0 
0.490488 0.205761 0.0 
0.976604 0.0111087 0.0 
0.797612 0.24066 0.0 
0.979909 -0.000547545 0.0 
0.994274 0.00769491 0.0 
0.730366 -0.111768 0.0 
0.96645 -0.0187517 0.0 
0.799178 0.188599 0.0 
0.731492 0.218844 0.0 
0.320879 -0.0720329 0.0 
0.875768 0.282346 0.0 
0.825225 0.281056 0.0 
0.913628 -0.0506837 0.0 
0.489538 -0.215518 0.0 
1.05034 0.528459 0.0 
0.678429 -0.127786 0.0 
0 0 0.0 
1.00239 -0.00533695 0.0 
0.994852 -0.0423619 0.0 
0.621628 0.404155 0.0 
0.730129 0.64942 0.0 
0.605014 -0.0936751 0.0 
0.868796 0.496306 0.0 
0.842242 0.149615 0.0 
1.00159 -0.0173464 0.0 
0.583189 0.467275 0.0 
0.886819 0.563318 0.0 
0.814484 0.144763 0.0 
0.228315 0.0862278 0.0 
0.981335 -0.0208654 0.0 
0 0 0.0 
0.900742 0.111922 0.0 
0.930926 0.263149 0.0 
0.899936 0.0222397 0.0 
0.782739 -0.0848346 0.0 
0.642356 -0.203744 0.0 
0.887132 0.0785232 0.0 
0.665676 -0.140204 0.0 
0.747737 0.166041 0.0 
0.679657 -0.20679 0.0 
0.524017 0.346193 0.0 
0.613493 0.219397 0.0 
0.168336 -0.0274919 0.0 
0.920971 0.378078 0.0 
0.832493 0.0582584 0.0 
0.951161 0.032895 0.0 
0.961296 0.0190417 0.0 
0.551663 -0.076323 0.0 
0.587416 0.598865 0.0 
0.835935 0.383398 0.0 
0.924979 0.0548094 0.0 
0.930381 -0.0372855 0.0 
0.711643 0.0715424 0.0 
0.534781 -0.173647 0.0 
1.01526 0.0106478 0.0 
0.909828 -0.038318 0.0 
0.877496 -0.0888701 0.0 
0.785432 -0.0287363 0.0 
0.852929 0.0875471 0.0 
0.83156 0.112592 0.0 
0.92764 0.14797 0.0 
0.56987 -0.214232 0.0 
0.912577 0.240625 0.0 
0.647744 -0.155055 0.0 
0.468581 -0.158908 0.0 
1.00086 0.464637 0.0 
0.799731 0.575709 0.0 
0.679508 -0.186065 0.0 
0.744645 0.232998 0.0 
0.826248 0.462193 0.0 
0.83645 0.019088 0.0 
0.733837 0.192367 0.0 
0.875979 0.190123 0.0 
0.764025 0.0307227 0.0 
0.642262 -0.11643 0.0 
0.708971 0.634767 0.0 
0.778966 0.0492333 0.0 
0.668371 -0.0586883 0.0 
0.668544 -0.0353693 0.0 
0.732536 0.014536 0.0 
0.728487 -0.192904 0.0 
0.768527 0.380684 0.0 
0.944991 -0.0211647 0.0 
0 0 0.0 
0.822787 -0.0236088 0.0 
0.850807 0.128434 0.0 
0.858296 0.208393 0.0 
1.00488 -0.023301 0.0 
1.06381 0.525816 0.0 
0.978927 0.0277352 0.0 
0.829958 0.147018 0.0 
0.866415 0.128545 0.0 
0.945338 0.0281551 0.0 
0.667697 0.105678 0.0 
0.940703 0.402997 0.0 
0.947562 -0.0349539 0.0 
0.694447 0.147062 0.0 
0.987191 0.00954765 0.0 
0.0584161 0.26005 0.0 
0.863892 0.103311 0.0 
0.810122 0.0750614 0.0 
0.99286 0.0104081 0.0 
0.893304 0.0599177 0.0 
0 0 0.0 
0 0 0.0 
0.85626 0.144586 0.0 
0.750169 -0.17303 0.0 
0.739443 -0.142531 0.0 
0.821809 0.121438 0.0 
0 0 0.0 
0.614454 -0.20122 0.0 
0.773426 0.0389098 0.0 
0.800899 0.321219 0.0 
0.927793 0.248621 0.0 
0.740355 0.107435 0.0 
0.609014 0.160453 0.0 
0.783889 0.293387 0.0 
0.742041 -0.168551 0.0 
0.945261 -0.00503458 0.0 
0.950874 0.0402754 0.0 
1.0303 0.547956 0.0 
0.717624 0.0850563 0.0 
0.793656 0.38971 0.0 
0.589986 -0.0986468 0.0 
0.945629 0.387091 0.0 
0.818545 0.0842798 0.0 
0.549864 -0.128708 0.0 
0.965024 0.0473204 0.0 
0.626133 -0.099919 0.0 
0.788705 0.0989747 0.0 
0.92811 0.0453745 0.0 
0.508078 -0.18089 0.0 
0.803864 0.0509063 0.0 
0.732674 0.369754 0.0 
0.807372 0.254154 0.0 
0.58329 -0.153987 0.0 
1.00207 -0.0138429 0.0 
0.562608 0.129221 0.0 
0.6948 0.0688888 0.0 
0.795707 0.122988 0.0 
0.864666 0.0587721 0.0 
0.761284 -0.130777 0.0 
0.8186 0.213045 0.0 
0.99083 -0.00885459 0.0 
0.585742 0.144686 0.0 
0.91359 -0.0167951 0.0 
0.93616 -0.0224397 0.0 
0.776059 -0.130568 0.0 
0.596762 0.243536 0.0 
0.808973 0.174554 0.0 
0.853159 0.0967488 0.0 
0.626272 0.0806684 0.0 
1.00449 -0.0507407 0.0 
0.311042 0.446691 0.0 
0 0 0.0 
0.754321 -0.0653562 0.0 
0.760795 0.271283 0.0 
0.592316 0.000545237 0.0 
0.848183 0.407816 0.0 
0.451633 -0.109627 0.0 
0.675376 0.0944843 0.0 
0.426415 -0.096614 0.0 
0.993063 0.0196697 0.0 
0.879713 0.039822 0.0 
0.84029 0.102293 0.0 
0.70202 0.26372 0.0 
0.830669 0.0901032 0.0 
0.776182 0.157441 0.0 
0.975861 -0.0317228 0.0 
0.750297 0.512935 0.0 
0.763091 -0.0411753 0.0 
0.323459 0.331281 0.0 
0.642888 0.0711126 0.0 
0.900921 -0.0473599 0.0 
0 0 0.0 
0.880979 -0.0559808 0.0 
0.82459 0.0275058 0.0 
0.241433 -0.0884309 0.0 
0.88996 0.386003 0.0 
1.0025 0.00285546 0.0 
0.403156 -0.176699 0.0 
0.587737 0.120653 0.0 
0.751446 0.133539 0.0 
0.911956 0.481762 0.0 
0.74096 0.130395 0.0 
0.999882 0 0.0 
1.00655 0 0.0 
0.811742 0.222823 0.0 
0.389845 0.241706 0.0 
0.06996 -0.0551962 0.0 
0.774803 0.104651 0.0 
0.877166 0.442726 0.0 
0.946196 0.342767 0.0 
1.0075 -0.000774676 0.0 
0.957853 0.0371167 0.0 
0.907191 0.129988 0.0 
0.958088 0.00280666 0.0 
0.99059 -0.0463711 0.0 
0.986818 0.0294638 0.0 
0.881385 0.214213 0.0 
0.791122 0.0420961 0.0 
0.679547 0.209887 0.0 
0.937991 0.0280562 0.0 
0.611695 0.300838 0.0 
0.783765 0.217777 0.0 
0.939468 0.422251 0.0 
0.724036 0.117461 0.0 
0.999367 -0.0553177 0.0 
0.936453 -0.0688856 0.0 
0.797051 0.0764267 0.0 
0.810964 0.0282546 0.0 
0.71562 0.187667 0.0 
0.65913 0.0869529 0.0 
0.921581 0.0899801 0.0 
0.582026 0.272433 0.0 
0.711128 -0.175251 0.0 
0.996901 -0.00181784 0.0 
0 0 0.0 
0.856595 0.171563 0.0 
0.850574 0.280166 0.0 
0.943924 0.116358 0.0 
0.702906 0.474769 0.0 
0.582834 0.431115 0.0 
0.838909 0.254031 0.0 
0.83425 -0.119026 0.0 
0.582351 0.19143 0.0 
1.0008 -0.00841034 0.0 
0.931303 -0.0149872 0.0 
0.988405 -0.0173442 0.0 
0.99465 -0.000198008 0.0 
0.914824 0.0496501 0.0 
0.994905 -0.0082311 0.0 
0.186976 -0.0348579 0.0 
0.833325 -0.109622 0.0 
0.872822 0.569913 0.0 
0.655388 0.1584 0.0 
0.999224 0.00326099 0.0 
0.945572 0.0423776 0.0 
0.854771 0.243736 0.0 
0.85829 0.324152 0.0 
0.821297 -0.123691 0.0 
0.725441 -0.0480007 0.0 
0.494771 0.160356 0.0 
0.65454 -0.0652948 0.0 
0.299447 0.351671 0.0 
0.92913 0.00651601 0.0 
0.935901 0.0669033 0.0 
0.661137 0.0648169 0.0 
0.823515 0.167789 0.0 
0.897131 0.509762 0.0 
0.827753 0.102116 0.0 
0.766161 0.0517714 0.0 
0.978119 0.0222031 0.0 
0.854042 0.0613409 0.0 
0.88994 -0.0822008 0.0 
0.606812 0.0744164 0.0 
0.36908 0.222029 0.0 
0.574762 -0.189766 0.0 
0 0 0.0 
0.623999 0.140529 0.0 
0.677051 0.0783702 0.0 
0.652668 -0.178615 0.0 
0.791615 0.0855093 0.0 
0.817861 -0.112515 0.0 
0.620869 0.245742 0.0 
0.642271 0.445373 0.0 
0.998155 -0.0191424 0.0 
0 0 0.0 
0.937153 0.0505571 0.0 
0.922018 0.489898 0.0 
0.808027 -0.127495 0.0 
0.392355 -0.120247 0.0 
0.770925 -0.0798778 0.0 
0.871783 0.594198 0.0 
0 0 0.0 
0.680778 -0.0608084 0.0 
0.0283387 0.144591 0.0 
0.643914 0.292655 0.0 
0.897038 0.33311 0.0 
0.954704 -0.0368318 0.0 
0.75412 -0.0788725 0.0 
0.775183 -0.050195 0.0 
0.407515 -0.148712 0.0 
0.812288 0.236688 0.0 
1.01035 -0.0142081 0.0 
0.993336 -0.00580006 0.0 
0.977155 -0.0250642 0.0 
0.976553 0.00423852 0.0 
0.491084 -0.130032 0.0 
0.909513 -0.0693694 0.0 
0.719203 0.609697 0.0 
0 0 0.0 
0.996241 0.00231058 0.0 
0.761292 0.157215 0.0 
0.839673 -0.0635907 0.0 
0.676819 -0.100713 0.0 
0.78234 0.0797139 0.0 
0.99443 -0.00196454 0.0 
0.57165 -0.154594 0.0 
0.730925 -0.121658 0.0 
0.987001 -0.0119113 0.0 
0.837226 -0.0755273 0.0 
0.970112 0.0115189 0.0 
0.95954 -0.0321282 0.0 
0.724151 -0.190473 0.0 
0.970771 -0.0580641 0.0 
0.697984 -0.0247822 0.0 
0 0 0.0 
0.898462 0.0795385 0.0 
0 0 0.0 
0.983721 -0.00451887 0.0 
0.62104 0.347144 0.0 
0.833212 0.228458 0.0 
0.748747 0.0153776 0.0 
0.753758 -0.056475 0.0 
0.940594 0.0842287 0.0 
0.568942 0.28803 0.0 
0.953138 0.109605 0.0 
0.956953 -0.0738206 0.0 
0.651334 -0.0362591 0.0 
0.716084 -0.0636466 0.0 
0.931934 0.275547 0.0 
0.80141 -0.032688 0.0 
0.925075 0.0667697 0.0 
0.89267 -0.0540506 0.0 
0.9047 0.159807 0.0 
0.6782 -0.201564 0.0 
0.864549 -0.0201201 0.0 
0.989867 -0.00139631 0.0 
0.789973 0.110945 0.0 
0.664807 0.0254803 0.0 
0.952287 0.0557972 0.0 
0.969423 0.0415977 0.0 
0.988058 -0.0386516 0.0 
0.974378 -0.0198126 0.0 
0.982823 0.0104109 0.0 
0.98427 -0.0410482 0.0 
0.617094 -0.141674 0.0 
1.00005 -0.000280286 0.0 
0.919182 0.283652 0.0 
0.991356 -0.0131865 0.0 
0.982009 -0.00969978 0.0 
0.446676 0.412407 0.0 
0.98896 -0.00433864 0.0 
0.979432 -0.0614524 0.0 
0.999246 -0.00597591 0.0 
0.992329 -0.0531618 0.0 
0.843419 -0.0977923 0.0 
0.943848 0.0361825 0.0 
0.906478 0.397939 0.0 
0.691184 -0.193666 0.0 
0.978513 -0.0527585 0.0 
0.451092 0.0478901 0.0 
0.810073 -0.0631068 0.0 
0.846462 0.631124 0.0 
0.859258 0.267984 0.0 