<VTKFile type="UnstructuredGrid" version="0.1" byte_order="LittleEndian">
  <UnstructuredGrid>
    <Piece NumberOfPoints="16392" NumberOfCells="32317">
      <Points>
        <DataArray type = "Float64" NumberOfComponents="3" format="ascii">
1.06817 1.02305 0.0 
1.04107 1.01409 0.0 
1.05631 1.02102 0.0 
1.04183 1.01819 0.0 
1.04171 1.0146 0.0 
1.07657 1.02034 0.0 
1.06102 1.01288 0.0 
1.0402 1.01379 0.0 
1.05393 1.01017 0.0 
1.0414 1.01356 0.0 
1.05604 1.01003 0.0 
1.07534 1.02347 0.0 
1.04626 1.01609 0.0 
1.04002 1.01813 0.0 
1.04345 1.01453 0.0 
1.07359 1.0203 0.0 
1.07041 1.02261 0.0 
1.0576 1.00821 0.0 
1.03983 1.01497 0.0 
1.04239 1.01648 0.0 
1.05741 1.01021 0.0 
1.07484 1.0176 0.0 
1.05435 1.01352 0.0 
1.05499 1.00904 0.0 
1.07682 1.02314 0.0 
1.04097 1.01603 0.0 
1.04078 1.01178 0.0 
1.04968 1.01397 0.0 
1.05546 1.0089 0.0 
1.07841 1.02354 0.0 
1.05165 1.00994 0.0 
1.05941 1.02252 0.0 
1.04062 1.01665 0.0 
1.04521 1.01789 0.0 
1.05466 1.00989 0.0 
1.06852 1.01586 0.0 
1.03915 1.01537 0.0 
1.04924 1.02198 0.0 
1.05522 1.01094 0.0 
1.08629 1.02384 0.0 
1.07091 1.01688 0.0 
1.08258 1.02409 0.0 
1.06084 1.01431 0.0 
1.04612 1.01873 0.0 
1.06315 1.00596 0.0 
1.05275 1.01486 0.0 
1.05646 1.01471 0.0 
1.05402 1.01092 0.0 
1.0478 1.02144 0.0 
1.04435 1.0164 0.0 
1.06395 1.02276 0.0 
1.05203 1.01097 0.0 
1.04669 1.01553 0.0 
1.0536 1.01287 0.0 
1.05532 1.01032 0.0 
1.04479 1.01571 0.0 
1.05015 1.01941 0.0 
1.05893 1.01432 0.0 
1.04095 1.0188 0.0 
1.06654 1.02122 0.0 
1.04279 1.01781 0.0 
1.03966 1.01717 0.0 
1.05172 1.01446 0.0 
1.04824 1.01674 0.0 
1.05682 1.00967 0.0 
1.05898 1.01558 0.0 
1.04966 1.01039 0.0 
1.05064 1.01018 0.0 
1.06291 1.02072 0.0 
1.05832 1.01271 0.0 
1.04526 1.02046 0.0 
1.04936 1.01312 0.0 
1.0428 1.01995 0.0 
1.13419 1.01341 0.0 
1.04746 1.01083 0.0 
1.05564 1.01526 0.0 
1.0551 1.01609 0.0 
1.05309 1.01992 0.0 
1.07707 1.02264 0.0 
1.05117 1.01796 0.0 
1.05701 1.01533 0.0 
1.0489 1.01535 0.0 
1.05451 1.00918 0.0 
1.05067 1.01077 0.0 
1.05749 1.01225 0.0 
1.04714 1.01618 0.0 
1.05306 1.00958 0.0 
1.04103 1.0124 0.0 
1.07026 1.01914 0.0 
1.05689 1.00845 0.0 
1.07072 1.02102 0.0 
1.07026 1.01991 0.0 
1.04185 1.01523 0.0 
1.04082 1.01759 0.0 
1.05187 1.01933 0.0 
1.05735 1.01148 0.0 
1.04086 1.01533 0.0 
1.06758 1.01867 0.0 
1.05049 1.02119 0.0 
1.0552 1.01214 0.0 
1.11603 1.01996 0.0 
1.04335 1.01516 0.0 
1.04072 1.01322 0.0 
1.05358 1.00944 0.0 
1.05718 1.01419 0.0 
1.05246 1.02135 0.0 
1.04566 1.01571 0.0 
1.04272 1.01567 0.0 
1.04386 1.01788 0.0 
1.05409 1.01215 0.0 
1.09445 0.99731 0.0 
1.05538 1.01333 0.0 
1.06225 1.01343 0.0 
1.07581 1.02084 0.0 
1.04421 1.01511 0.0 
1.04037 1.01454 0.0 
1.05166 1.01511 0.0 
1.05329 1.0194 0.0 
1.05602 1.00936 0.0 
1.0414 1.01963 0.0 
1.06293 1.00608 0.0 
1.04527 1.01633 0.0 
1.0653 1.01546 0.0 
1.07587 1.02388 0.0 
1.04289 1.01389 0.0 
1.07711 1.01926 0.0 
1.04843 1.01928 0.0 
1.05556 1.01152 0.0 
1.05747 1.02069 0.0 
1.04917 1.0105 0.0 
1.0531 1.01011 0.0 
1.04643 1.01748 0.0 
1.05642 1.0086 0.0 
1.0579 1.0088 0.0 
1.06479 1.01842 0.0 
1.04256 1.01473 0.0 
1.04811 1.01147 0.0 
1.05403 1.00932 0.0 
1.04886 1.01736 0.0 
1.0546 1.0114 0.0 
1.05597 1.01083 0.0 
1.09243 0.996095 0.0 
1.06832 1.01736 0.0 
1.04998 1.01721 0.0 
1.06582 1.01909 0.0 
1.0608 1.01854 0.0 
1.061 1.01377 0.0 
1.04773 1.01381 0.0 
1.0389 1.01373 0.0 
1.03979 1.01188 0.0 
1.04381 1.01575 0.0 
1.05541 1.01825 0.0 
1.05346 1.01071 0.0 
1.06794 1.02065 0.0 
1.05635 1.01682 0.0 
1.04309 1.01716 0.0 
1.05226 1.01035 0.0 
1.08228 1.02355 0.0 
1.06545 1.0237 0.0 
1.04397 1.02055 0.0 
1.06818 1.01932 0.0 
1.05071 1.01456 0.0 
1.05704 1.01296 0.0 
1.06055 1.01727 0.0 
1.05559 1.01752 0.0 
1.06908 1.02147 0.0 
1.05767 1.02021 0.0 
1.04113 1.01487 0.0 
1.06147 1.01181 0.0 
1.0591 1.00844 0.0 
1.04535 1.017 0.0 
1.05637 1.01352 0.0 
1.04195 1.01405 0.0 
1.05815 1.01486 0.0 
1.05463 1.01063 0.0 
1.04743 1.01888 0.0 
1.04702 1.01162 0.0 
1.04508 1.013 0.0 
1.05845 1.01327 0.0 
1.05604 1.01921 0.0 
1.05393 1.01652 0.0 
1.04806 1.0204 0.0 
1.06265 1.01282 0.0 
1.05258 1.00971 0.0 
1.04847 1.0144 0.0 
1.05838 1.01687 0.0 
1.0567 1.01041 0.0 
1.03958 1.01427 0.0 
1.07372 1.02241 0.0 
1.0433 1.01862 0.0 
1.05415 1.0149 0.0 
1.0564 1.0121 0.0 
1.04647 1.01101 0.0 
1.05638 1.01987 0.0 
1.0518 1.01651 0.0 
1.04443 1.01925 0.0 
1.05432 1.02118 0.0 
1.06511 1.01772 0.0 
1.06296 1.0095 0.0 
1.05764 1.00952 0.0 
1.05302 1.01807 0.0 
1.03938 1.01623 0.0 
1.05518 1.01462 0.0 
1.05618 1.00868 0.0 
1.05319 1.01555 0.0 
1.05541 1.00959 0.0 
1.06825 1.02357 0.0 
1.0455 1.01921 0.0 
1.0566 1.01103 0.0 
1.08325 1.02288 0.0 
1.07234 1.02364 0.0 
1.05793 1.01076 0.0 
1.06036 1.01194 0.0 
1.04092 1.01821 0.0 
1.05415 1.01891 0.0 
1.05237 1.0115 0.0 
1.05919 1.02067 0.0 
1.04937 1.01632 0.0 
1.06409 1.00839 0.0 
1.06412 1.01612 0.0 
1.05944 1.01377 0.0 
1.05422 1.01417 0.0 
1.05293 1.01218 0.0 
1.06336 1.00647 0.0 
1.05112 1.01006 0.0 
1.05348 1.01148 0.0 
1.059 1.0092 0.0 
1.05806 1.01954 0.0 
1.06034 1.01504 0.0 
1.11261 1.01904 0.0 
1.04971 1.02059 0.0 
1.05726 1.01083 0.0 
1.05921 1.02009 0.0 
1.07899 1.02083 0.0 
1.05209 1.00983 0.0 
1.06258 1.00692 0.0 
1.05475 1.0128 0.0 
1.07057 1.02318 0.0 
1.06689 1.01979 0.0 
1.06181 1.00662 0.0 
1.07335 1.01896 0.0 
1.04223 1.01912 0.0 
1.04883 1.02103 0.0 
1.05135 1.01333 0.0 
1.06192 1.02315 0.0 
1.06703 1.01639 0.0 
1.04955 1.02152 0.0 
1.05704 1.01598 0.0 
1.05585 1.01281 0.0 
1.05051 1.01584 0.0 
1.06158 1.00672 0.0 
1.06359 1.00572 0.0 
1.04343 1.01643 0.0 
1.03837 1.01575 0.0 
1.04955 1.01788 0.0 
1.05441 1.02052 0.0 
1.05071 1.0202 0.0 
1.04184 1.0172 0.0 
1.04874 1.01856 0.0 
1.05043 1.01327 0.0 
1.0761 1.02222 0.0 
1.07222 1.02146 0.0 
1.06202 1.00716 0.0 
1.0591 1.01102 0.0 
1.05667 1.00914 0.0 
1.04868 1.0106 0.0 
1.03951 1.01267 0.0 
1.05177 1.01213 0.0 
1.04474 1.0186 0.0 
1.05278 1.01085 0.0 
1.0523 1.01294 0.0 
1.04614 1.01424 0.0 
1.04171 1.01588 0.0 
1.05327 1.01359 0.0 
1.05741 1.01877 0.0 
1.05937 1.01164 0.0 
1.06402 1.00548 0.0 
1.0594 1.01894 0.0 
1.04827 1.01222 0.0 
1.03904 1.01194 0.0 
1.06525 1.02085 0.0 
1.06273 1.0167 0.0 
1.05148 1.01724 0.0 
1.04154 1.01654 0.0 
1.04547 1.0198 0.0 
1.07197 1.01798 0.0 
1.05064 1.01865 0.0 
1.06943 1.01831 0.0 
1.04966 1.01471 0.0 
1.05687 1.02261 0.0 
1.05254 1.02061 0.0 
1.06226 1.00641 0.0 
1.05167 1.0199 0.0 
1.06359 1.01142 0.0 
1.07485 1.02141 0.0 
1.051 1.01389 0.0 
1.11535 1.01911 0.0 
1.07137 1.02199 0.0 
1.05031 1.01139 0.0 
1.04855 1.01356 0.0 
1.05975 1.00745 0.0 
1.06314 1.00825 0.0 
1.07278 1.01968 0.0 
1.04598 1.01109 0.0 
1.04524 1.01121 0.0 
1.04481 1.01356 0.0 
1.05111 1.01271 0.0 
1.06495 1.02025 0.0 
1.04686 1.01964 0.0 
1.05977 1.00905 0.0 
1.07115 1.02057 0.0 
1.05842 1.01136 0.0 
1.05761 1.01372 0.0 
1.04562 1.01177 0.0 
1.06029 1.01968 0.0 
1.05478 1.01977 0.0 
1.04475 1.01129 0.0 
1.04628 1.02098 0.0 
1.04405 1.0139 0.0 
1.0445 1.01132 0.0 
1.04637 1.01168 0.0 
1.07579 1.01847 0.0 
1.05118 1.02079 0.0 
1.05836 1.01199 0.0 
1.06349 1.00893 0.0 
1.04484 1.01186 0.0 
1.04546 1.01498 0.0 
1.07491 1.01145 0.0 
1.04338 1.01938 0.0 
1.0557 1.00883 0.0 
1.04512 1.01418 0.0 
1.044 1.01139 0.0 
1.05726 1.00903 0.0 
1.06444 1.00647 0.0 
1.04765 1.01505 0.0 
1.06139 1.02174 0.0 
1.08921 1.02491 0.0 
1.04446 1.01454 0.0 
1.04701 1.01817 0.0 
1.03819 1.01421 0.0 
1.06271 1.01483 0.0 
1.04685 1.0128 0.0 
1.06271 1.00619 0.0 
1.03882 1.01287 0.0 
1.04899 1.01992 0.0 
1.05 1.01098 0.0 
1.0488 1.01123 0.0 
1.05949 1.0098 0.0 
1.0383 1.01496 0.0 
1.05211 1.01375 0.0 
1.06273 1.01546 0.0 
1.07873 1.02214 0.0 
1.04415 1.01308 0.0 
1.03815 1.01278 0.0 
1.061 1.02086 0.0 
1.06424 1.00535 0.0 
1.06324 1.01882 0.0 
1.06262 1.00883 0.0 
1.05965 1.02193 0.0 
1.05751 1.0221 0.0 
1.06364 1.00954 0.0 
1.06054 1.01139 0.0 
1.05303 1.01429 0.0 
1.05855 1.00789 0.0 
1.06112 1.00692 0.0 
1.04723 1.01431 0.0 
1.04793 1.01756 0.0 
1.04454 1.01246 0.0 
1.04742 1.02085 0.0 
1.06335 1.01016 0.0 
1.07412 1.0219 0.0 
1.04003 1.01312 0.0 
1.05902 1.00772 0.0 
1.04976 1.01191 0.0 
1.06442 1.02225 0.0 
1.04537 1.01239 0.0 
1.03817 1.0135 0.0 
1.06182 1.00881 0.0 
1.07925 1.02154 0.0 
1.03854 1.01198 0.0 
1.06398 1.01209 0.0 
1.06395 1.0062 0.0 
1.06262 1.01112 0.0 
1.03889 1.01454 0.0 
1.06047 1.00859 0.0 
1.06439 1.01267 0.0 
1.04014 1.01576 0.0 
1.03943 1.0135 0.0 
1.05308 1.02199 0.0 
1.05923 1.0125 0.0 
1.08542 0.996389 0.0 
1.04665 1.01676 0.0 
1.06052 1.0094 0.0 
1.05998 1.01039 0.0 
1.04381 1.01246 0.0 
1.0557 1.02218 0.0 
1.07975 1.02305 0.0 
1.0645 1.00585 0.0 
1.06324 1.01071 0.0 
1.04756 1.01184 0.0 
1.06423 1.01043 0.0 
1.06283 1.00755 0.0 
1.04844 1.01065 0.0 
1.06394 1.00768 0.0 
1.06264 1.01414 0.0 
1.06448 1.00907 0.0 
1.05822 1.02117 0.0 
1.05502 1.01556 0.0 
1.04656 1.02036 0.0 
1.06266 1.01227 0.0 
1.06249 1.01996 0.0 
1.06249 1.01171 0.0 
1.08561 1.02318 0.0 
1.0612 1.01238 0.0 
1.07321 1.02096 0.0 
1.0616 1.01113 0.0 
1.06132 1.01048 0.0 
1.06178 1.0101 0.0 
1.04693 1.01219 0.0 
1.048 1.01586 0.0 
1.06337 1.00584 0.0 
1.04598 1.01294 0.0 
1.06119 1.00807 0.0 
1.05459 1.02248 0.0 
1.06868 1.02211 0.0 
1.056 1.02164 0.0 
1.05354 1.01735 0.0 
1.04564 1.01358 0.0 
1.04351 1.01146 0.0 
1.06042 1.00719 0.0 
1.06046 1.00783 0.0 
1.04843 1.01286 0.0 
1.06061 1.01013 0.0 
1.0909 1.00007 0.0 
1.04674 1.01356 0.0 
1.05124 1.0114 0.0 
1.0578 1.02157 0.0 
1.06143 1.00744 0.0 
1.06113 1.00902 0.0 
1.04207 1.01342 0.0 
1.04663 1.01482 0.0 
1.06215 1.02129 0.0 
1.04136 1.01293 0.0 
1.11829 1.01928 0.0 
1.04173 1.01231 0.0 
1.06485 1.0146 0.0 
1.06187 1.02235 0.0 
1.08064 1.02252 0.0 
1.04309 1.01205 0.0 
1.06338 1.02179 0.0 
1.06063 1.01079 0.0 
1.04946 1.01126 0.0 
1.06438 1.0139 0.0 
1.04619 1.0123 0.0 
1.05436 1.0218 0.0 
1.06263 1.01009 0.0 
1.05596 1.02039 0.0 
1.07932 1.024 0.0 
1.06381 1.0056 0.0 
1.07873 1.01885 0.0 
1.07668 1.02177 0.0 
1.07375 1.02301 0.0 
1.04257 1.01233 0.0 
1.05992 1.02132 0.0 
1.04344 1.01344 0.0 
1.05015 1.01029 0.0 
1.05976 1.00818 0.0 
1.05151 1.01073 0.0 
1.1307 1.02346 0.0 
[...]
<PointData>
  <DataArray type = "Float64" Name="Vitesse" NumberOfComponents="3" format="ascii">
0.944689 0.0191648 0.0 
0.144782 -0.00451812 0.0 
0.846836 0.0180593 0.0 
0.650661 0.0184164 0.0 
0.193956 -0.0045385 0.0 
0.694033 0.00705249 0.0 
0.0925328 0.00334979 0.0 
0.118705 -0.00419436 0.0 
-0.0017188 0.00104496 0.0 
0.10089 -0.00441987 0.0 
-0.00360632 0.0030362 0.0 
0.943361 0.0167988 0.0 
0.345286 -0.00308809 0.0 
0.664096 0.0226035 0.0 
0.185451 -0.00510233 0.0 
0.697753 0.00679787 0.0 
0.902559 0.0159379 0.0 
0 0 0.0 
0.237299 -0.00275891 0.0 
0.412014 0.00192875 0.0 
-0.00230758 0.00431234 0.0 
0.455463 0.00277196 0.0 
0.115074 -0.00277277 0.0 
0 0 0.0 
0.91629 0.015097 0.0 
0.362698 0.000852805 0.0 
0 0 0.0 
0.139609 -0.00548358 0.0 
0 0 0.0 
0.938339 0.0159057 0.0 
0 0 0.0 
0.9544 0.0246249 0.0 
0.447049 0.005501 0.0 
0.576247 0.00858846 0.0 
-0.00313399 0.00146013 0.0 
0.309643 0.00128572 0.0 
0.287471 -0.000730734 0.0 
0.994286 0.0403892 0.0 
0.00899354 0.00212939 0.0 
0.938221 0.0141937 0.0 
0.395667 0.0015175 0.0 
0.961666 0.0159191 0.0 
0.180431 2.73054e-06 0.0 
0.676788 0.014508 0.0 
0 0 0.0 
0.214148 -0.00494954 0.0 
0.204127 -0.0030698 0.0 
0.00770316 0.00114421 0.0 
0.962356 0.0391822 0.0 
0.390883 -0.000563145 0.0 
0.945202 0.0212311 0.0 
0.0071793 8.26665e-05 0.0 
0.282245 -0.0048587 0.0 
0.076458 -0.00204974 0.0 
-0.000725662 0.00240277 0.0 
0.307193 -0.00352291 0.0 
0.722965 0.0138728 0.0 
0.177449 -0.00126532 0.0 
0.744829 0.0287709 0.0 
0.805547 0.0116056 0.0 
0.587909 0.0120555 0.0 
0.529931 0.0122052 0.0 
0.18015 -0.00523485 0.0 
0.413377 -0.00171071 0.0 
-0.00633067 0.00333958 0.0 
0.278426 -0.00238003 0.0 
0 0 0.0 
0 0 0.0 
0.776812 0.0107397 0.0 
0.0775102 0.00158883 0.0 
0.892727 0.0358345 0.0 
0.0826272 -0.00434678 0.0 
0.865911 0.0377732 0.0 
0.511049 -0.0282057 0.0 
0 0 0.0 
0.24893 -0.00394157 0.0 
0.32699 -0.00390429 0.0 
0.757015 0.0140639 0.0 
0.879935 0.0134902 0.0 
0.543959 0.002714 0.0 
0.256182 -0.00334175 0.0 
0.260896 -0.00536341 0.0 
0 0 0.0 
0.00324604 -0.000338962 0.0 
0.0543615 0.00200216 0.0 
0.353162 -0.00333433 0.0 
0 0 0.0 
0.0258793 -0.00198632 0.0 
0.600558 0.00390503 0.0 
0 0 0.0 
0.771021 0.009493 0.0 
0.672205 0.00587077 0.0 
0.261777 -0.0032885 0.0 
0.57767 0.0141608 0.0 
0.700349 0.0110401 0.0 
0.0252936 0.00336179 0.0 
0.275632 -0.00229369 0.0 
0.56182 0.00252126 0.0 
0.910849 0.0295636 0.0 
0.0456469 0.000425232 0.0 
0.734873 -0.00838291 0.0 
0.250108 -0.00434052 0.0 
0.073638 -0.00367194 0.0 
0 0 0.0 
0.165669 -0.00201002 0.0 
0.908108 0.0268294 0.0 
0.30433 -0.0038678 0.0 
0.309327 -0.00254671 0.0 
0.587368 0.010802 0.0 
0.0438045 -0.000419896 0.0 
-0.138137 0.037222 0.0 
0.105802 -0.00158804 0.0 
0.126748 0.00291072 0.0 
0.739419 0.00820319 0.0 
0.243563 -0.00469419 0.0 
0.188932 -0.00388545 0.0 
0.23584 -0.00544159 0.0 
0.697275 0.0100177 0.0 
-0.00492894 0.00196833 0.0 
0.846152 0.0386185 0.0 
0 0 0.0 
0.377524 -0.00143879 0.0 
0.274262 0.000525451 0.0 
0.967939 0.0180227 0.0 
0.128663 -0.00497657 0.0 
0.598439 0.00513574 0.0 
0.722627 0.0155993 0.0 
0.024147 0.00166447 0.0 
0.80613 0.0146179 0.0 
0 0 0.0 
-0.00104723 0.000461222 0.0 
0.513881 0.00385803 0.0 
0 0 0.0 
-0.00743729 0.00285967 0.0 
0.543168 0.00189463 0.0 
0.205934 -0.00467387 0.0 
0.0116135 -0.00133515 0.0 
0 0 0.0 
0.485423 0.00100456 0.0 
0.0191356 0.00113237 0.0 
0.0068533 0.00291304 0.0 
-0.126614 0.0109984 0.0 
0.437549 0.00101171 0.0 
0.461071 -0.000426535 0.0 
0.606868 0.0035865 0.0 
0.566562 0.00205169 0.0 
0.144597 0.00124137 0.0 
0.126096 -0.00550615 0.0 
0.112289 -0.00375047 0.0 
0 0 0.0 
0.314588 -0.0029082 0.0 
0.555551 0.00182319 0.0 
0.00395403 0.000886023 0.0 
0.748384 0.00858498 0.0 
0.398283 -0.00268906 0.0 
0.496382 0.00578062 0.0 
0.000380856 0.000463838 0.0 
0.928439 0.0147661 0.0 
1.00136 0.0249377 0.0 
0.918118 0.0413192 0.0 
0.622647 0.00418424 0.0 
0.187703 -0.00566889 0.0 
0.0874404 0.000329175 0.0 
0.437031 -0.00097563 0.0 
0.474452 -0.000856489 0.0 
0.816227 0.0115729 0.0 
0.756388 0.0113535 0.0 
0.223574 -0.00385 0.0 
0.0451933 0.00654128 0.0 
-0.00910831 0.00367979 0.0 
0.460025 0.00197078 0.0 
0.119017 -0.00122952 0.0 
0.141699 -0.00485932 0.0 
0.217962 -0.00244127 0.0 
0.00306564 0.0016917 0.0 
0.682518 0.0136958 0.0 
0.0133182 -0.00192963 0.0 
0.0683577 -0.00421975 0.0 
0.108514 0.000359527 0.0 
0.659711 0.00649666 0.0 
0.371845 -0.00344796 0.0 
0.854764 0.0273072 0.0 
0.0943102 0.00482905 0.0 
0 0 0.0 
0.173325 -0.0058764 0.0 
0.40032 -0.00196203 0.0 
0.000496946 0.00364087 0.0 
0.163504 -0.00391346 0.0 
0.873729 0.0136296 0.0 
0.691567 0.0196067 0.0 
0.21746 -0.00459588 0.0 
0.0459124 0.00160367 0.0 
0 0 0.0 
0.728795 0.0101827 0.0 
0.376155 -0.00344407 0.0 
0.760349 0.0239629 0.0 
0.877252 0.0220357 0.0 
0.474883 0.000547808 0.0 
-0.0111334 0.012518 0.0 
-0.00803282 0.00400188 0.0 
0.54719 0.00226212 0.0 
0.39987 0.00420296 0.0 
0.195528 -0.00366155 0.0 
0 0 0.0 
0.276032 -0.00474122 0.0 
-0.00419966 0.00184669 0.0 
0.979398 0.0215718 0.0 
0.743582 0.0208531 0.0 
0.012229 0.00308546 0.0 
0.880247 0.012949 0.0 
0.966017 0.0190737 0.0 
0.00709574 0.00472925 0.0 
0.0479991 0.00503672 0.0 
0.663666 0.0213403 0.0 
0.636505 0.00600385 0.0 
0.0194182 -0.000545102 0.0 
0.792763 0.0129124 0.0 
0.361725 -0.00344888 0.0 
-0.0210192 0.014369 0.0 
0.328282 -0.000520652 0.0 
0.140778 1.62335e-05 0.0 
0.160004 -0.00381603 0.0 
0.0432019 -0.00126468 0.0 
-0.00962827 0.00513238 0.0 
0 0 0.0 
0.020044 0.000212782 0.0 
-0.0109759 0.00547557 0.0 
0.683801 0.00716392 0.0 
0.234475 -0.00135507 0.0 
0.654018 0.00434812 0.0 
0.858168 0.0255551 0.0 
0.00832946 0.00399152 0.0 
0.73447 0.00947927 0.0 
0.730886 0.00850511 0.0 
0 0 0.0 
-0.0104776 0.00517601 0.0 
0.0750729 -0.00116768 0.0 
0.942747 0.0182656 0.0 
0.671504 0.00570548 0.0 
0 0 0.0 
0.577562 0.00380888 0.0 
0.771039 0.0287042 0.0 
0.9116 0.0319776 0.0 
0.0986438 -0.003929 0.0 
0.985109 0.0253897 0.0 
0.352302 0.00051579 0.0 
0.951322 0.0351647 0.0 
0.315281 -0.00341084 0.0 
0.0775731 -0.000240888 0.0 
0.308342 -0.00487347 0.0 
0 0 0.0 
0 0 0.0 
0.399418 0.00040707 0.0 
0.341243 0.00222715 0.0 
0.54413 0.00341281 0.0 
0.810629 0.0167885 0.0 
0.807684 0.019988 0.0 
0.512673 0.0081912 0.0 
0.631906 0.0089215 0.0 
0.0930711 -0.00433738 0.0 
0.850881 0.0123079 0.0 
0.802991 0.0107296 0.0 
-0.00994069 0.00462538 0.0 
0.0146637 0.00559071 0.0 
-0.00559875 0.0020645 0.0 
0 0 0.0 
0.0363803 -0.00185242 0.0 
0.0389728 -0.00166324 0.0 
0.673221 0.0161406 0.0 
0.00563342 0.000425719 0.0 
0.0777222 -0.00292725 0.0 
0.15898 -0.00582471 0.0 
0.339709 -0.000602396 0.0 
0.118091 -0.00351704 0.0 
0.603963 0.0036539 0.0 
0.0342673 0.00474734 0.0 
0 0 0.0 
0.614144 0.0037786 0.0 
0.0357659 -0.00277503 0.0 
0 0 0.0 
0.778196 0.0104601 0.0 
0.379911 -0.00114967 0.0 
0.458312 -0.000916375 0.0 
0.426116 0.00358418 0.0 
0.815782 0.0274133 0.0 
0.491045 0.00220741 0.0 
0.628632 0.00748686 0.0 
0.523927 0.00221105 0.0 
0.200122 -0.00595479 0.0 
0.978717 0.0290114 0.0 
0.835063 0.0203968 0.0 
0 0 0.0 
0.765816 0.0157484 0.0 
0.0366814 0.00963747 0.0 
0.789968 0.00993009 0.0 
0.135494 -0.00491305 0.0 
0.675456 -0.00164258 0.0 
0.850161 0.0129879 0.0 
0.0137099 -0.000865738 0.0 
0.109197 -0.0052451 0.0 
0 0 0.0 
-0.0202168 0.012164 0.0 
0.644594 0.00524114 0.0 
0 0 0.0 
0 0 0.0 
0.10489 -0.004996 0.0 
0.0637354 -0.00302454 0.0 
0.722562 0.00789662 0.0 
0.781195 0.022207 0.0 
-0.0127627 0.00647015 0.0 
0.729634 0.00785132 0.0 
0.0234908 0.00441363 0.0 
0.13463 -0.000933205 0.0 
0.0141798 -0.00175123 0.0 
0.687512 0.00684595 0.0 
0.727929 0.0108477 0.0 
0 0 0.0 
0.934553 0.0386708 0.0 
0.129146 -0.00548632 0.0 
0 0 0.0 
0.0135576 -0.0017756 0.0 
0.530591 0.00375371 0.0 
0.864853 0.0243694 0.0 
0.0454325 0.00323127 0.0 
-0.0171041 0.0134449 0.0 
0.0150784 -0.00166937 0.0 
0.227467 -0.00541428 0.0 
0.0691453 0.0108981 0.0 
0.78872 0.0285931 0.0 
0 0 0.0 
0.154135 -0.0056471 0.0 
0 0 0.0 
-0.00700395 0.0025427 0.0 
-0.0166156 0.00950643 0.0 
0.232015 -0.00568522 0.0 
0.878053 0.0174654 0.0 
0.995067 0.0146217 0.0 
0.186165 -0.0056525 0.0 
0.597375 0.00827426 0.0 
0.158079 -0.00345113 0.0 
0.221323 0.000250419 0.0 
0.0600665 -0.00414108 0.0 
0 0 0.0 
0.046416 -0.00251337 0.0 
0.792303 0.0206283 0.0 
0.00566731 -0.000248279 0.0 
0.00824938 -0.00104591 0.0 
-0.00773309 0.00680738 0.0 
0.241321 -0.00176897 0.0 
0.127083 -0.00434531 0.0 
0.270944 -0.000564007 0.0 
0.837257 0.0117257 0.0 
0.0713802 -0.00426106 0.0 
0.0398744 -0.00272957 0.0 
0.800966 0.0126962 0.0 
0 0 0.0 
0.587648 0.00291192 0.0 
-0.0176118 0.0118125 0.0 
0.90574 0.0205869 0.0 
0.933636 0.0243762 0.0 
-0.00990474 0.0133974 0.0 
0.0281309 0.00648446 0.0 
0.167467 -0.00455101 0.0 
0 0 0.0 
0 0 0.0 
0.165648 -0.00577817 0.0 
0.515116 0.00278032 0.0 
0.0382688 -0.00304777 0.0 
0.90941 0.0338378 0.0 
0.000605534 0.0122592 0.0 
0.832439 0.0116909 0.0 
0.0666363 -0.00330009 0.0 
0 0 0.0 
0.0275042 -0.00188617 0.0 
0.903547 0.0180193 0.0 
0.0368703 -0.00310941 0.0 
0.0925786 -0.00351538 0.0 
-0.0167551 0.0100839 0.0 
0.788195 0.0101322 0.0 
0 0 0.0 
0.0643416 0.00802819 0.0 
-0.0103369 0.00578359 0.0 
0.0242047 0.00954641 0.0 
0.191416 -0.00327454 0.0 
-0.0141502 0.00663867 0.0 
0.0918951 0.00657808 0.0 
0.332357 0.000137258 0.0 
0.0931867 -0.00357992 0.0 
0.959818 0.0311339 0.0 
0.0695541 0.00281827 0.0 
-0.0507574 0.00468734 0.0 
0.423795 -0.000545223 0.0 
-0.011923 0.00811812 0.0 
0.00131899 0.00727532 0.0 
0.0369013 -0.00283634 0.0 
0.953864 0.0277124 0.0 
0.900868 0.0141304 0.0 
-0.00961872 0.0055848 0.0 
0.013469 0.0111595 0.0 
0.0199652 -0.00197542 0.0 
0.00865111 0.012653 0.0 
-0.0176454 0.00940732 0.0 
0 0 0.0 
-0.0217541 0.0128795 0.0 
0.172321 0.00151877 0.0 
-0.0154168 0.0149499 0.0 
0.846995 0.0171707 0.0 
0.275929 -0.00426809 0.0 
0.866206 0.0307835 0.0 
0.0679425 0.00645038 0.0 
0.705021 0.00730712 0.0 
0.0441693 0.00791464 0.0 
0.896722 0.0131369 0.0 
0.0688397 0.00478242 0.0 
0.757059 0.00882253 0.0 
0.022165 0.00828655 0.0 
0.00455319 0.00904977 0.0 
-0.00259497 0.0101978 0.0 
0.0321545 -0.00299696 0.0 
0.315161 -0.00447614 0.0 
0 0 0.0 
0.0660953 -0.00449283 0.0 
-0.014964 0.00683749 0.0 
0.986972 0.0321687 0.0 
0.87067 0.0145782 0.0 
0.906301 0.0231337 0.0 
0.463107 -0.00114201 0.0 
0.107172 -0.00530998 0.0 
0 0 0.0 
0 0 0.0 
-0.00909354 0.00347763 0.0 
0.0660093 -0.00411896 0.0 
-0.00295011 0.00831895 0.0 
-0.0861198 0.0387777 0.0 
0.106461 -0.00533278 0.0 
0.0149877 -0.000652873 0.0 
0.886849 0.0203282 0.0 
-0.00971038 0.00437075 0.0 
-0.0150043 0.00892285 0.0 
0.0906803 -0.00454037 0.0 
0.211268 -0.00561928 0.0 
0.834001 0.0142681 0.0 
0.0565991 -0.00329858 0.0 
0.704881 -0.00986315 0.0 
0.0236969 -0.00218378 0.0 
0.208839 0.00179538 0.0 
0.926344 0.0207072 0.0 
0.860953 0.0125998 0.0 
0.0169995 -0.00161653 0.0 
0.871368 0.01627 0.0 
0.0110634 0.00763943 0.0 
0.00911986 -0.000915346 0.0 
0.160798 0.00317924 0.0 
0.0346055 -0.00323678 0.0 
0.933433 0.0270288 0.0 
-0.0018306 0.0114952 0.0 
0.785722 0.0138708 0.0 
0.964742 0.0169143 0.0 
0 0 0.0 
0.560783 0.00512551 0.0 
0.814013 0.0108244 0.0 
0.918268 0.0159478 0.0 
0.0266493 -0.00230899 0.0 
0.849934 0.0162702 0.0 
0.0946018 -0.00478675 0.0 
0 0 0.0 
-0.00953543 0.00382761 0.0 
0.00323898 2.04834e-05 0.0 
0.987714 -0.0711813 0.0 
0.646193 0.00563465 0.0 
0.701404 -0.04018 0.0 
-0.0206763 0.0153466 0.0 
-0.00810147 0.00759807 0.0 
0.0146701 0.00639585 0.0 
0.050783 -0.00351686 0.0 
0.143978 0.00575174 0.0 
-0.00738598 0.00926607 0.0 
0.824036 0.013066 0.0 
0.0526699 -0.00358999 0.0 
0.957948 0.0136552 0.0 
0.107763 0.00164009 0.0 
-0.0175203 0.00961203 0.0 
0.0725 0.0360377 0.0 
0.0753737 -0.00427982 0.0 
0 0 0.0 
0 0 0.0 
0.992045 0.0286055 0.0 
0.00896701 0.0100713 0.0 
0.0255449 -0.00189394 0.0 
-0.0029288 0.0135977 0.0 
0.636071 0.00447427 0.0 
0 0 0.0 
0.025624 0.00248773 0.0 
-0.010742 0.00653236 0.0 
0.0520953 -0.00359351 0.0 
0.150064 -0.00258499 0.0 
-0.0176582 0.00905317 0.0 
0.301253 -0.00493609 0.0 
0 0 0.0 
0.518722 0.000943809 0.0 
0 0 0.0 
0 0 0.0 
0.50296 0.00455815 0.0 
0.00206504 0.00637198 0.0 
0.0846012 -0.00462751 0.0 
0 0 0.0 
0.603926 0.0112373 0.0 
0.248239 -0.00562524 0.0 
0.0225666 -0.00182838 0.0 
0.742809 0.000695556 0.0 
-0.019819 0.0167926 0.0 
0 0 0.0 
0.00495823 0.00544292 0.0 
0.507143 0.000140441 0.0 
0 0 0.0 
0 0 0.0 
0.965016 0.0340576 0.0 
0.448075 0.0247703 0.0 
0 0 0.0 
0 0 0.0 
-0.0204331 0.0165175 0.0 
0.0163217 -0.00157854 0.0 
0.859366 0.014546 0.0 
0 0 0.0 
0.77176 0.00939029 0.0 
0 0 0.0 
0.554623 0.0147987 0.0 
0.0146661 0.0503165 0.0 
0.0266099 0.0112146 0.0 
0.764099 0.00991988 0.0 
0.0688709 0.0154545 0.0 
0.899501 -0.0536052 0.0 
-0.133506 0.0246321 0.0 
0.930206 -0.0753737 0.0 
0.5569 0.0124574 0.0 
0.671088 0.00595399 0.0 
0.402448 0.033201 0.0 
0.833393 -0.019973 0.0 
0.863635 -0.0447852 0.0 
0.663013 0.00812811 0.0 
0.0167782 0.0128167 0.0 
-0.00955898 0.00473458 0.0 
0.768804 -0.0067027 0.0 
0.480735 0.000911011 0.0 
0 0 0.0 
-0.0163072 0.010318 0.0 
-0.0389399 0.0435922 0.0 
-0.0100387 0.00657 0.0 
-0.0225613 0.0136189 0.0 
0.708652 0.00858287 0.0 
0.611246 0.00648406 0.0 
-0.00702537 0.014783 0.0 
0 0 0.0 
0 0 0.0 
0.0876555 0.0154358 0.0 
0.0330771 0.0117466 0.0 
0.70268 -0.10312 0.0 
0.0526548 0.00977648 0.0 
0.00277856 0.014036 0.0 
0.848547 0.0120795 0.0 
0.81767 0.0112632 0.0 
0.28133 0.0119795 0.0 
-0.0240134 0.0156956 0.0 
0.239618 0.0020052 0.0 
0.900799 -0.0665746 0.0 
0.614933 0.00610619 0.0 
0.47091 0.00737469 0.0 
0.591709 0.00551265 0.0 
0.913497 -0.0855988 0.0 
0.933863 -0.0631244 0.0 
0.0943699 0.0192201 0.0 
0.691832 -0.083248 0.0 
0.553191 -0.0511305 0.0 
0.570111 0.0158279 0.0 
0.822284 -0.0415877 0.0 
0.272946 0.0527816 0.0 
0.461739 0.0236322 0.0 
0.325391 0.0452566 0.0 
0.209562 0.0597216 0.0 
0.738222 -0.0197184 0.0 
0.864203 -0.0552577 0.0 
0.874898 -0.0723151 0.0 
0.423635 0.0280406 0.0 
-0.0674103 0.0594843 0.0 
0.0226023 0.0216437 0.0 
-0.0865957 0.0293827 0.0 
0.791062 -0.0147328 0.0 
0.639788 -0.00192109 0.0 
0.625217 0.0115379 0.0 
0.378308 0.00362645 0.0 
0.829193 -0.0903124 0.0 
0.831816 -0.0129521 0.0 
0.804468 -0.00527314 0.0 
0.304433 0.0500804 0.0 
0.850487 0.003271 0.0 
0.422593 0.00525394 0.0 
0.696804 0.00697449 0.0 
-0.11014 0.0436726 0.0 
0.711858 -0.0367836 0.0 
0.038924 0.0161094 0.0 
0.0726041 0.0183526 0.0 
0.666221 -0.0516863 0.0 
0.380156 0.031329 0.0 
0.746115 -0.120374 0.0 
0.376591 0.0370859 0.0 
-0.007829 0.00723144 0.0 
0.59932 -0.0571853 0.0 
0.842101 -0.116596 0.0 
0.553259 -0.060141 0.0 
0.590317 -0.0733964 0.0 
0.707389 -0.000744803 0.0 
0.0338358 0.0416547 0.0 
-0.0380297 0.0633299 0.0 
0.793989 -0.0931528 0.0 
-0.116418 0.0219668 0.0 
0.115271 0.00853063 0.0 
0.688779 -0.0439263 0.0 
-0.000383605 0.0336417 0.0 
0.0921139 0.00869995 0.0 
0.017472 0.0462763 0.0 
-0.046118 0.0387124 0.0 
-0.103159 0.0333003 0.0 
0.762512 -0.0496948 0.0 
-0.109012 0.0088614 0.0 
0.011923 0.0238267 0.0 
0.0144756 0.0574121 0.0 
0.724554 -0.0658438 0.0 
-0.0140834 0.0617589 0.0 
0.830577 -0.0693859 0.0 
0.0427529 0.0376092 0.0 
-0.0111753 0.0279776 0.0 
0.875229 -0.102866 0.0 
0.916055 -0.103226 0.0 
0.0475149 0.0244874 0.0 
0.1399 0.0432869 0.0 
0.0623744 0.0447019 0.0 
0.785055 -0.0787436 0.0 
0.796617 -0.114414 0.0 
0.056131 0.0143446 0.0 
0.926731 -0.139825 0.0 
-0.00783306 0.0171799 0.0 
0.0253146 0.0312109 0.0 
0.0946534 0.0133973 0.0 
0.0876657 0.0319188 0.0 
-0.0163007 0.0407726 0.0 
0.113523 0.0223175 0.0 
0.0984382 0.0102371 0.0 
0.548701 -0.0413574 0.0 
0.987423 -0.0503478 0.0 
-0.0360046 0.0357954 0.0 
0.774845 -0.0656289 0.0 
0.523463 -0.0136481 0.0 
-0.0226151 0.0157538 0.0 
0.0215119 0.0261334 0.0 
0.241325 0.0563536 0.0 
0.515614 -0.0051484 0.0 
-0.0364076 0.0136035 0.0 
0.717107 0.00955377 0.0 
0.752571 -0.111518 0.0 
0.0386874 0.0463271 0.0 
-0.0256093 0.0350912 0.0 
-0.0632412 0.0660693 0.0 
-0.0233873 0.0183624 0.0 
0.00320999 -0.00723932 0.0 
1.06852 -0.12138 0.0 
0.719693 -0.0973866 0.0 
1.07763 -0.0698644 0.0 
-0.082446 0.0197822 0.0 
0.548835 0.0109111 0.0 
1.00897 -0.0763077 0.0 
0.967801 -0.00609324 0.0 
-0.00114921 -0.0227176 0.0 
-0.0249782 0.00335964 0.0 
0.0679491 0.0305535 0.0 
0.0508449 0.029161 0.0 
0.12397 0.0151604 0.0 
0.905208 0.00212881 0.0 
0.66296 0.00970281 0.0 
0.559205 0.0162347 0.0 
0.396346 0.027482 0.0 
1.0143 -0.0890277 0.0 
-0.037886 0.00734635 0.0 
0.85505 -0.0973036 0.0 
0.00606479 0.0164187 0.0 
0.00353716 -0.0126015 0.0 
-0.0254935 0.0166869 0.0 
0.936432 -0.147014 0.0 
1.06118 -0.0682697 0.0 
0.317785 0.00785365 0.0 
1.09104 -0.091205 0.0 
0.815117 -0.126512 0.0 
-0.0501524 -0.0272678 0.0 
0.996117 -0.083517 0.0 
1.10069 -0.0703619 0.0 
0.563463 -0.0220679 0.0 
0.919651 -0.146024 0.0 
0.0305543 0.0572786 0.0 
0.780632 -0.101728 0.0 
0.998367 -0.00243867 0.0 
1.04989 -0.139166 0.0 
0.0249291 0.0533009 0.0 
-0.0300066 -0.0293935 0.0 
0.665131 -0.0898067 0.0 
-0.0193047 0.0351273 0.0 
1.03966 -0.0401294 0.0 
0.915627 0.00770795 0.0 
1.08159 -0.118583 0.0 
-0.0583821 0.04587 0.0 
-0.0364475 -0.000658899 0.0 
0.827346 -0.0554891 0.0 
0.866874 -0.155077 0.0 
-0.0295225 0.0390252 0.0 
-9.66991e-06 0.0585491 0.0 
0.0232508 0.0180639 0.0 
0.00116723 -0.00868339 0.0 
1.08315 -0.123423 0.0 
0.011497 0.0536182 0.0 
0.828374 0.00914521 0.0 
0.795176 -0.132975 0.0 
0.976003 0.0115323 0.0 
-0.017011 -0.0226014 0.0 
-0.039905 0.0307326 0.0 
0.0635314 0.0255401 0.0 
-0.0104144 0.0247237 0.0 
0.945098 0.0106317 0.0 
-0.0258645 0.0176144 0.0 
-0.0272566 0.0197631 0.0 
-0.0238288 0.0542354 0.0 
-0.00071292 0.019688 0.0 
0.973139 -0.0193229 0.0 
-0.0126385 0.0538255 0.0 
0.000360777 -0.015298 0.0 
-0.0388403 -0.0253791 0.0 
1.05703 -0.110323 0.0 
-0.0510248 0.0496895 0.0 
0.000482035 -0.000790079 0.0 
0.66784 -0.0610303 0.0 
1.01737 -0.0342611 0.0 
-0.0190799 0.00459461 0.0 
0.894785 -0.150471 0.0 
0.868542 -0.150538 0.0 
-0.0297973 0.0204656 0.0 
-0.024513 -0.0212314 0.0 
0.625321 -0.0873558 0.0 
-0.00861616 -0.0237126 0.0 
0 0 0.0 
0.0100194 0.0142451 0.0 
0.00177104 -0.0026117 0.0 
0.091696 0.00925018 0.0 
-0.0175905 0.0185209 0.0 
1.04119 -0.0639849 0.0 
1.08727 -0.106871 0.0 
0.00139214 -0.00367222 0.0 
0.0353382 0.0190178 0.0 
0.954692 0.00717448 0.0 
-0.033645 0.0268451 0.0 
1.05828 -0.037794 0.0 
0.0772904 0.0220654 0.0 
-0.0289119 0.0205737 0.0 
-0.00775822 0.000654813 0.0 
0.308729 0.0362077 0.0 
-0.0302014 0.0201827 0.0 
-0.0196051 0.0177252 0.0 
-0.0313961 0.0216477 0.0 
0.249585 0.0195215 0.0 
0.130504 0.006702 0.0 
0 0 0.0 
-0.0964493 0.0508986 0.0 
-0.0576282 0.00802589 0.0 
0.00919435 0.0191431 0.0 
-0.00236545 0.0021831 0.0 
0 0 0.0 
0 0 0.0 
0 0 0.0 
0 0 0.0 
1.02679 -0.0763476 0.0 
-0.00831334 0.00578497 0.0 
0.0112429 0.0150558 0.0 
-0.00387981 0.00371812 0.0 
-0.00258657 0.00254403 0.0 
0.743605 -0.0909423 0.0 
-0.0189943 0.0303474 0.0 
-0.0319928 -0.0169602 0.0 
0.103338 0.0119383 0.0 
-0.00802001 0.00564228 0.0 
-0.00647071 -0.00195676 0.0 
0.737319 0.0113141 0.0 
0 0 0.0 
-0.00431446 0.00395334 0.0 
-0.00421291 -0.00695222 0.0 
-0.0216003 -0.0122086 0.0 
-0.00568401 0.00482875 0.0 
0 0 0.0 
-0.0249369 0.00840223 0.0 
-0.0509288 0.0144317 0.0 
-0.0215247 -0.0325099 0.0 
0.542367 -0.0246787 0.0 
-0.0657965 0.0118333 0.0 
-0.0519018 0.0620486 0.0 
1.04533 -0.092947 0.0 
0.782652 -0.122893 0.0 
-0.0953042 0.0440913 0.0 
-0.0392963 -0.00738274 0.0 
0 0 0.0 
0 0 0.0 
1.00579 0.0120552 0.0 
-0.0560363 -0.0142044 0.0 
1.01492 -0.0622115 0.0 
-0.0122031 0.00972138 0.0 
0 0 0.0 
0.995163 -0.0126366 0.0 
0.00321572 0.0222266 0.0 
0 0 0.0 
0 0 0.0 
1.00463 -0.141036 0.0 
-0.002637 -0.00994926 0.0 
0.826376 -0.0795316 0.0 
0.027739 0.0364761 0.0 
-0.0297427 0.017295 0.0 
0 0 0.0 
-0.0163286 -0.0056115 0.0 
0.877698 -0.0885305 0.0 
0 0 0.0 
0 0 0.0 
1.02925 -0.0492907 0.0 
-0.012259 -0.0329249 0.0 
-0.00629081 0.00592122 0.0 
-0.00921241 0.00798053 0.0 
-0.00524912 0.00458088 0.0 
-0.00333506 0.00312848 0.0 
-0.0167789 0.0132208 0.0 
-0.0161732 0.0182331 0.0 
-0.00860133 0.00693785 0.0 
0.62406 -0.00442076 0.0 
0 0 0.0 
-0.0061869 0.00588477 0.0 
0.926604 0.0129171 0.0 