<VTKFile type="UnstructuredGrid" version="0.1" byte_order="LittleEndian">
  <UnstructuredGrid>
    <Piece NumberOfPoints="16351" NumberOfCells="32268">
      <Points>
        <DataArray type = "Float64" NumberOfComponents="3" format="ascii">
1.1371 0.973624 0.0 
1.10781 0.985195 0.0 
1.18508 0.980298 0.0 
1.09481 0.984368 0.0 
1.09656 0.980632 0.0 
1.11844 0.969373 0.0 
1.10421 0.971639 0.0 
1.09819 0.981165 0.0 
1.09712 0.979379 0.0 
1.14079 0.976896 0.0 
1.1236 0.968881 0.0 
1.16746 0.976791 0.0 
1.11007 0.984861 0.0 
1.10371 0.971108 0.0 
1.10783 0.971262 0.0 
1.10713 0.979439 0.0 
1.14329 0.97366 0.0 
1.07964 0.984735 0.0 
1.13496 0.980027 0.0 
1.1016 0.976261 0.0 
1.11293 0.971382 0.0 
1.14537 0.972333 0.0 
1.09804 0.978916 0.0 
1.13338 0.985732 0.0 
1.15552 0.984976 0.0 
1.11274 0.978187 0.0 
1.15102 0.985602 0.0 
1.11116 0.970934 0.0 
1.13576 0.983149 0.0 
1.15705 0.973962 0.0 
1.10071 0.975131 0.0 
1.1055 0.977088 0.0 
1.07884 0.982332 0.0 
1.14125 0.973966 0.0 
1.10531 0.972985 0.0 
1.10263 0.981189 0.0 
1.10736 0.971888 0.0 
1.11104 0.972686 0.0 
1.12317 0.983788 0.0 
1.13791 0.970773 0.0 
1.11484 0.971986 0.0 
1.13928 0.972924 0.0 
1.16149 0.980953 0.0 
1.09719 0.982922 0.0 
1.16407 0.975903 0.0 
1.17097 0.983137 0.0 
1.19087 0.981587 0.0 
1.12552 0.970762 0.0 
1.16196 0.983409 0.0 
1.10638 0.973348 0.0 
1.09681 0.987978 0.0 
1.09894 0.971138 0.0 
1.11505 0.970887 0.0 
1.15061 0.986853 0.0 
1.11614 0.986172 0.0 
1.16882 0.977499 0.0 
1.09983 0.985985 0.0 
1.09803 0.979701 0.0 
1.10386 0.972739 0.0 
1.10688 0.972626 0.0 
1.14366 0.980949 0.0 
1.09391 0.984142 0.0 
1.10824 0.988424 0.0 
1.101 0.978174 0.0 
1.09755 0.980316 0.0 
1.17705 0.977531 0.0 
1.157 0.974657 0.0 
1.13533 0.976403 0.0 
1.12397 0.979035 0.0 
1.15647 0.986593 0.0 
1.12474 0.971548 0.0 
1.15677 0.979159 0.0 
1.10047 0.97806 0.0 
1.07975 0.982237 0.0 
1.14119 0.973213 0.0 
1.10065 0.974463 0.0 
1.10644 0.989781 0.0 
1.10233 0.972888 0.0 
1.1382 0.972348 0.0 
1.10441 0.985609 0.0 
1.11914 0.984466 0.0 
1.12103 0.980444 0.0 
1.16032 0.97702 0.0 
1.16793 0.985141 0.0 
1.1206 0.973735 0.0 
1.10603 0.971557 0.0 
1.13829 0.973936 0.0 
1.14334 0.978259 0.0 
1.10798 0.97617 0.0 
1.15292 0.974981 0.0 
1.1429 0.974436 0.0 
1.08009 0.982703 0.0 
1.15892 0.983249 0.0 
1.10466 0.977639 0.0 
1.1663 0.98422 0.0 
1.08799 1.00602 0.0 
1.08106 0.984246 0.0 
1.08163 0.984947 0.0 
1.15512 0.976407 0.0 
1.1687 0.976123 0.0 
1.16268 0.976378 0.0 
1.09678 0.981204 0.0 
1.13065 0.969342 0.0 
1.14437 0.971882 0.0 
1.13066 0.970845 0.0 
1.10255 0.97711 0.0 
1.19822 0.986655 0.0 
1.11933 0.979516 0.0 
1.09545 0.992342 0.0 
1.16637 0.976028 0.0 
1.15641 0.983213 0.0 
1.10934 0.972857 0.0 
1.08357 1.00542 0.0 
1.13437 0.973624 0.0 
1.149 0.974786 0.0 
1.11173 0.983163 0.0 
1.16554 0.981113 0.0 
1.11718 0.971698 0.0 
1.15752 0.982176 0.0 
1.10091 0.982334 0.0 
1.13314 0.971082 0.0 
1.15124 0.974843 0.0 
1.11878 0.970909 0.0 
1.1423 0.973419 0.0 
1.09487 0.982328 0.0 
1.11281 0.97262 0.0 
1.10675 0.980631 0.0 
1.147 0.974695 0.0 
1.16489 0.976685 0.0 
1.14953 0.981563 0.0 
1.14403 0.978953 0.0 
1.07973 0.984025 0.0 
1.09992 0.978653 0.0 
1.18279 0.984401 0.0 
1.12661 0.971207 0.0 
1.10415 0.986469 0.0 
1.1048 0.973613 0.0 
1.07966 0.985427 0.0 
1.18388 0.983302 0.0 
1.14572 0.974307 0.0 
1.10102 0.984582 0.0 
1.12245 0.970053 0.0 
1.09428 0.986238 0.0 
1.15123 0.973137 0.0 
1.10075 0.971797 0.0 
1.17194 0.977536 0.0 
1.11921 0.970212 0.0 
1.10047 0.989538 0.0 
1.15792 0.980502 0.0 
1.11435 0.971527 0.0 
1.11613 0.971326 0.0 
1.07994 0.983313 0.0 
1.09942 0.982853 0.0 
1.09017 0.984701 0.0 
1.11276 0.976497 0.0 
1.10566 0.972316 0.0 
1.09917 0.989143 0.0 
1.11408 0.98164 0.0 
1.1353 0.985707 0.0 
1.09806 0.988853 0.0 
1.0803 0.985124 0.0 
1.1217 0.977657 0.0 
1.15428 0.977837 0.0 
1.1679 0.981868 0.0 
1.11871 0.980118 0.0 
1.09744 0.981526 0.0 
1.19477 0.982104 0.0 
1.099 0.978422 0.0 
1.1813 0.978893 0.0 
1.17038 0.981397 0.0 
1.09918 0.976231 0.0 
1.09544 0.981765 0.0 
1.13323 0.975497 0.0 
1.12618 0.971859 0.0 
1.16267 0.975818 0.0 
1.15338 0.97672 0.0 
1.14723 0.975231 0.0 
1.11406 0.978117 0.0 
1.12012 0.972844 0.0 
1.07876 0.98164 0.0 
1.13404 0.97511 0.0 
1.09482 0.987302 0.0 
1.13642 0.971034 0.0 
1.11575 0.976657 0.0 
1.15831 0.976076 0.0 
1.07938 0.98288 0.0 
1.19356 0.98747 0.0 
1.12416 0.969398 0.0 
1.10844 0.983614 0.0 
1.10384 0.989413 0.0 
1.11655 0.970596 0.0 
1.13856 0.972651 0.0 
1.08087 0.984805 0.0 
1.08052 0.983733 0.0 
1.16053 0.982279 0.0 
1.10483 0.975024 0.0 
1.08035 0.984362 0.0 
1.11281 0.972053 0.0 
1.173 0.980753 0.0 
1.09907 0.985703 0.0 
1.14031 0.972783 0.0 
1.09896 0.992542 0.0 
1.10302 0.974974 0.0 
1.14771 0.976287 0.0 
1.1132 0.980525 0.0 
1.15454 0.975135 0.0 
1.1726 0.97834 0.0 
1.15347 0.985302 0.0 
1.19764 0.987779 0.0 
1.07937 0.981636 0.0 
1.11655 0.973557 0.0 
1.09921 0.984597 0.0 
1.14691 0.98555 0.0 
1.11782 0.970038 0.0 
1.11041 0.982685 0.0 
1.1401 0.973394 0.0 
1.081 0.985348 0.0 
1.1681 0.980532 0.0 
1.15747 0.977133 0.0 
1.1675 0.978185 0.0 
1.10932 0.971332 0.0 
1.17701 0.97838 0.0 
1.12257 0.974767 0.0 
1.10875 0.972219 0.0 
1.1127 0.981965 0.0 
1.11762 0.970748 0.0 
1.07872 0.981126 0.0 
1.18623 0.982642 0.0 
1.09134 0.985645 0.0 
1.12293 0.97382 0.0 
1.10311 0.972277 0.0 
1.13593 0.981375 0.0 
1.09577 0.982406 0.0 
1.1363 0.972198 0.0 
1.15821 0.975619 0.0 
1.12801 0.980725 0.0 
1.12078 0.969575 0.0 
1.14029 0.975829 0.0 
1.11794 0.985902 0.0 
1.10156 0.975154 0.0 
1.09593 0.986205 0.0 
1.11913 0.975186 0.0 
1.10201 0.971245 0.0 
1.10457 0.972105 0.0 
1.08951 0.985468 0.0 
1.10914 0.979019 0.0 
1.09374 0.985524 0.0 
1.19205 0.989167 0.0 
1.11425 0.970507 0.0 
1.10451 0.983792 0.0 
1.1123 0.971069 0.0 
1.11086 0.971513 0.0 
1.1565 0.975804 0.0 
1.09032 1.00544 0.0 
1.09751 0.98088 0.0 
1.10354 0.973236 0.0 
1.12454 0.976485 0.0 
1.13503 0.984059 0.0 
1.11888 0.985197 0.0 
1.11377 0.985917 0.0 
1.15002 0.982967 0.0 
1.12828 0.97093 0.0 
1.11797 0.982821 0.0 
1.1759 0.983119 0.0 
1.10455 0.975755 0.0 
1.14727 0.982108 0.0 
1.08036 0.985747 0.0 
1.14902 0.985294 0.0 
1.15626 0.97981 0.0 
1.10639 0.986036 0.0 
1.11025 0.970758 0.0 
1.13687 0.972549 0.0 
1.10059 0.979617 0.0 
1.10198 0.970673 0.0 
1.10226 0.971862 0.0 
1.09535 1.00527 0.0 
1.11611 0.969983 0.0 
1.1516 0.981208 0.0 
1.16026 0.977785 0.0 
1.08659 0.981087 0.0 
1.08022 0.981643 0.0 
1.19746 0.983537 0.0 
1.15161 0.975424 0.0 
1.12012 0.975022 0.0 
1.09967 0.975013 0.0 
1.10153 0.989119 0.0 
1.08173 0.984106 0.0 
1.13346 0.971476 0.0 
1.15837 0.978837 0.0 
1.14339 0.9714 0.0 
1.08207 0.984667 0.0 
1.1318 0.971122 0.0 
1.11498 0.982896 0.0 
1.08854 0.987429 0.0 
1.14972 0.975389 0.0 
1.12919 0.971298 0.0 
1.1722 0.982263 0.0 
1.10479 0.984531 0.0 
1.14596 0.9809 0.0 
1.11105 0.982945 0.0 
1.09981 0.977225 0.0 
1.10063 0.977391 0.0 
1.15262 0.97937 0.0 
1.08752 0.98277 0.0 
1.18864 0.982759 0.0 
1.16132 0.976568 0.0 
1.09377 1.0054 0.0 
1.09698 0.972338 0.0 
1.09084 0.991526 0.0 
1.08205 1.00662 0.0 
1.0873 0.982133 0.0 
1.14087 0.971134 0.0 
1.09892 0.979748 0.0 
1.08359 0.982139 0.0 
1.16986 0.985296 0.0 
1.08206 0.975615 0.0 
1.19047 0.982406 0.0 
1.1112 0.984597 0.0 
1.08127 0.983526 0.0 
1.1099 0.981534 0.0 
1.1023 0.987889 0.0 
1.0936 0.983035 0.0 
1.10364 0.987049 0.0 
1.15273 0.977171 0.0 
1.12067 0.970551 0.0 
1.10948 0.983292 0.0 
1.10172 0.987811 0.0 
1.08951 1.00638 0.0 
1.09711 0.978669 0.0 
1.08781 0.987512 0.0 
1.08735 0.981208 0.0 
1.09568 0.985206 0.0 
1.08697 0.975168 0.0 
1.14473 0.975694 0.0 
1.10272 0.979263 0.0 
1.09998 0.983453 0.0 
1.11321 0.977138 0.0 
1.08384 0.974709 0.0 
1.10622 0.984531 0.0 
1.09747 0.988414 0.0 
1.11339 0.978594 0.0 
1.08673 0.982745 0.0 
1.08733 0.979004 0.0 
1.08892 0.99042 0.0 
1.13344 0.979489 0.0 
1.10491 0.980115 0.0 
1.09989 0.97662 0.0 
1.09661 0.982472 0.0 
1.13628 0.98468 0.0 
1.08778 0.97856 0.0 
1.18313 0.986402 0.0 
1.09296 0.987775 0.0 
1.10554 0.984952 0.0 
1.18136 0.979824 0.0 
1.10907 0.986938 0.0 
1.09197 0.983326 0.0 
1.09883 0.986396 0.0 
1.08878 0.985906 0.0 
1.14147 0.97905 0.0 
1.10102 0.98309 0.0 
1.08872 0.988339 0.0 
1.10554 0.984256 0.0 
1.16246 0.986297 0.0 
1.16263 0.981501 0.0 
1.17467 0.978007 0.0 
1.08773 0.991413 0.0 
1.08572 0.980186 0.0 
1.10202 0.983949 0.0 
1.15773 0.976362 0.0 
1.14069 0.978286 0.0 
1.09016 0.983313 0.0 
1.10502 0.986694 0.0 
1.09455 0.985665 0.0 
1.19136 0.983332 0.0 
1.09022 0.985277 0.0 
1.10723 0.981842 0.0 
1.16023 0.986082 0.0 
1.12261 0.976467 0.0 
1.18597 0.981544 0.0 
1.10654 0.986852 0.0 
1.10231 0.990693 0.0 
1.08389 0.985769 0.0 
1.08732 0.97456 0.0 
1.09735 0.982154 0.0 
1.12416 0.975182 0.0 
1.11497 0.986633 0.0 
1.17778 0.979757 0.0 
1.1652 0.982885 0.0 
1.09665 0.983778 0.0 
1.16966 0.979692 0.0 
1.18336 0.98224 0.0 
1.1589 0.979622 0.0 
1.10671 0.987493 0.0 
1.14293 0.976476 0.0 
1.10669 0.982622 0.0 
1.12556 0.977011 0.0 
1.08784 0.977318 0.0 
1.10349 0.976402 0.0 
1.08251 0.984387 0.0 
1.1166 0.982657 0.0 
1.10018 0.988065 0.0 
1.16309 0.974699 0.0 
1.09022 0.988727 0.0 
1.0956 0.980533 0.0 
1.14289 0.975157 0.0 
1.15494 0.986012 0.0 
1.10246 0.982755 0.0 
1.10344 0.975663 0.0 
1.10731 0.970787 0.0 
1.08782 0.977952 0.0 
1.08822 0.986676 0.0 
1.11051 0.984208 0.0 
1.10894 0.976373 0.0 
1.08778 0.972756 0.0 
1.08875 0.972592 0.0 
1.08263 0.981751 0.0 
1.14674 0.980043 0.0 
1.10359 0.977298 0.0 
1.11165 0.975519 0.0 
1.08034 0.980499 0.0 
1.08937 0.98085 0.0 
1.10992 0.978242 0.0 
1.09382 0.973974 0.0 
1.08072 0.97649 0.0 
1.08512 1.00532 0.0 
1.14839 0.980913 0.0 
1.10127 0.989836 0.0 
1.12722 0.972273 0.0 
1.08816 0.985825 0.0 
1.0881 0.976609 0.0 
1.16544 0.978597 0.0 
1.1375 0.972965 0.0 
1.11448 0.980167 0.0 
1.12856 0.974741 0.0 
1.09882 0.990761 0.0 
1.08187 1.00571 0.0 
1.0899 0.977065 0.0 
1.08587 1.00598 0.0 
1.0989 0.975571 0.0 
1.08559 0.974474 0.0 
1.09804 0.982418 0.0 
1.09183 0.990604 0.0 
1.09892 0.977709 0.0 
1.10279 0.981815 0.0 
1.08864 0.975407 0.0 
1.12839 0.976164 0.0 
1.10768 0.976797 0.0 
1.0811 0.981632 0.0 
[...]
<PointData>
  <DataArray type = "Float64" Name="Vitesse" NumberOfComponents="3" format="ascii">
0.206069 0.121634 0.0 
-0.0878018 0.141632 0.0 
0.0914288 -0.169491 0.0 
0.0764959 -0.175302 0.0 
0.259508 -0.135908 0.0 
0.903615 -0.000656085 0.0 
1.00173 -0.0873244 0.0 
0.230811 -0.103715 0.0 
0.356601 -0.11753 0.0 
-0.048951 0.151203 0.0 
0.851285 0.0083366 0.0 
0.0195592 -0.0762556 0.0 
-0.0926801 0.175452 0.0 
1.03419 -0.100946 0.0 
0.968267 -0.0490692 0.0 
0.306217 0.0667866 0.0 
0.101791 0.107212 0.0 
0.249051 -0.145567 0.0 
-0.125323 0.208811 0.0 
0.655109 -0.0557243 0.0 
0.876674 -0.000115666 0.0 
0.169391 0.0818589 0.0 
0.401615 -0.100391 0.0 
-0.191092 0.215707 0.0 
-0.0951623 -0.0187522 0.0 
0.32946 0.120548 0.0 
-0.112049 0.0250689 0.0 
0.93385 -0.0216723 0.0 
-0.175438 0.201769 0.0 
0.0310271 0.0137588 0.0 
0.784619 -0.0848253 0.0 
0.530405 0.0134697 0.0 
0.5646 -0.286304 0.0 
0.107155 0.119593 0.0 
0.897785 -0.0513085 0.0 
0.212431 -0.00266352 0.0 
0.938739 -0.0442863 0.0 
0.820154 0.00753386 0.0 
-0.171061 0.271862 0.0 
0.445172 0.0618993 0.0 
0.801494 0.0243409 0.0 
0.222319 0.1059 0.0 
-0.058863 -0.055228 0.0 
0.129799 -0.125072 0.0 
0.0143894 -0.047906 0.0 
-0.0210716 -0.135409 0.0 
0.115249 -0.181777 0.0 
0.69273 0.0446556 0.0 
-0.0667123 -0.0715594 0.0 
0.852022 -0.0314233 0.0 
-0.0889184 -0.0810962 0.0 
1.08142 -0.168065 0.0 
0.871323 0.00615355 0.0 
-0.107458 0.0243245 0.0 
-0.197289 0.256761 0.0 
0.0178557 -0.0892348 0.0 
-0.0481546 -0.0298615 0.0 
0.334956 -0.103102 0.0 
0.939441 -0.0753882 0.0 
0.897437 -0.0375228 0.0 
-0.136078 0.124853 0.0 
0.0923406 -0.195923 0.0 
-0.215885 0.174464 0.0 
0.468034 -0.0507932 0.0 
0.286746 -0.115144 0.0 
0.0725013 -0.129787 0.0 
0.010504 0.0122885 0.0 
0.0327525 0.173235 0.0 
0.0580477 0.212013 0.0 
-0.0858315 -0.034629 0.0 
0.647534 0.0577546 0.0 
-0.0681841 -0.00426717 0.0 
0.480955 -0.060321 0.0 
0.543847 -0.282694 0.0 
0.16383 0.108306 0.0 
0.851608 -0.0963198 0.0 
-0.236934 0.151414 0.0 
0.953209 -0.095458 0.0 
0.294626 0.0950943 0.0 
-0.0762964 0.0776907 0.0 
-0.162923 0.264374 0.0 
0.0163685 0.223394 0.0 
-0.0241022 -0.0249546 0.0 
-0.0413981 -0.12547 0.0 
0.554134 0.0881199 0.0 
0.979408 -0.0652758 0.0 
0.158234 0.126171 0.0 
-0.0967263 0.132856 0.0 
0.579867 0.0350741 0.0 
-0.0062429 0.0458884 0.0 
0.056422 0.118021 0.0 
0.482711 -0.259709 0.0 
-0.0805041 -0.04376 0.0 
0.489663 0.00690148 0.0 
-0.0477 -0.109721 0.0 
-0.0609286 0.0433593 0.0 
0.202106 -0.122186 0.0 
0 0 0.0 
-0.03618 0.0229895 0.0 
0.0382358 -0.0797192 0.0 
-0.00157606 -0.0402483 0.0 
0.225163 -0.134738 0.0 
0.705981 0.0272825 0.0 
0.221025 0.0781601 0.0 
0.587588 0.055272 0.0 
0.559772 -0.0323998 0.0 
0.102617 -0.205536 0.0 
0.110262 0.196495 0.0 
-0.170868 -0.0406824 0.0 
0.0254394 -0.0644977 0.0 
-0.091929 -0.0198633 0.0 
0.837769 -0.00591102 0.0 
-0.0543441 0.0355939 0.0 
0.263409 0.121079 0.0 
0.00196358 0.0784841 0.0 
-0.0178139 0.180271 0.0 
-0.0385509 -0.0884005 0.0 
0.778819 0.0329765 0.0 
-0.0844321 -0.0257098 0.0 
0.145695 -0.0348733 0.0 
0.517259 0.0638208 0.0 
-0.00381692 0.0605904 0.0 
0.804319 0.0264173 0.0 
0.132668 0.107444 0.0 
0.159962 -0.180247 0.0 
0.792543 0.0213273 0.0 
0.216172 0.0741294 0.0 
0.0146318 0.0931062 0.0 
0.00590267 -0.058238 0.0 
-0.117608 0.0583524 0.0 
-0.109872 0.125474 0.0 
0.343622 -0.194523 0.0 
0.426879 -0.0682047 0.0 
0.0359256 -0.191182 0.0 
0.637844 0.0553074 0.0 
-0.113688 0.0801891 0.0 
0.857291 -0.0478022 0.0 
0.136663 -0.0823578 0.0 
0.0509301 -0.18703 0.0 
0.0386197 0.100627 0.0 
0.0101215 -0.0133666 0.0 
0.797325 0.0243983 0.0 
0.0113469 -0.164605 0.0 
0.0706326 0.0565553 0.0 
1.03842 -0.13465 0.0 
0.0374103 -0.107159 0.0 
0.842172 0.0160505 0.0 
-0.183379 0.0261869 0.0 
-0.0737919 -0.0215023 0.0 
0.841948 0.0128512 0.0 
0.824001 0.020468 0.0 
0.420943 -0.23198 0.0 
0.122472 -0.0685838 0.0 
0.104271 -0.208285 0.0 
0.472312 0.0920663 0.0 
0.938964 -0.0578563 0.0 
-0.157384 -0.00882292 0.0 
0.0478102 0.187728 0.0 
-0.182181 0.196712 0.0 
-0.13454 -0.0386246 0.0 
0.123647 -0.0758726 0.0 
0.20588 0.174101 0.0 
-0.063659 0.0253001 0.0 
-0.0306006 -0.109146 0.0 
0.0781758 0.203366 0.0 
0.207768 -0.121143 0.0 
0.135241 -0.182529 0.0 
0.449397 -0.0841436 0.0 
0.0834231 -0.152208 0.0 
-0.0136119 -0.122211 0.0 
0.685914 -0.0940943 0.0 
0.188107 -0.165806 0.0 
0.132724 0.159685 0.0 
0.594221 0.0672282 0.0 
0.00848949 -0.0370993 0.0 
-0.0486014 0.0380468 0.0 
-0.0103019 0.0937876 0.0 
0.31315 0.131542 0.0 
0.63599 0.0683623 0.0 
0.620817 -0.303608 0.0 
0.146396 0.152245 0.0 
-0.0347007 -0.137076 0.0 
0.452346 0.066473 0.0 
0.404351 0.119129 0.0 
-0.0174645 -0.00379935 0.0 
0.495349 -0.262551 0.0 
0.0708513 -0.215917 0.0 
0.811107 0.0177474 0.0 
-0.00745512 0.136653 0.0 
-0.212043 0.0992935 0.0 
0.86375 0.0100042 0.0 
0.260474 0.100965 0.0 
0.119654 -0.0743431 0.0 
0.328849 -0.189137 0.0 
-0.0703377 -0.0536769 0.0 
0.73295 -0.0246202 0.0 
0.247333 -0.146096 0.0 
0.833735 0.0109766 0.0 
0.00723675 -0.13307 0.0 
-0.026696 -0.0527963 0.0 
0.215208 0.101916 0.0 
-0.220387 0.0274117 0.0 
0.765018 -0.0515844 0.0 
-0.0489358 0.0919702 0.0 
0.138688 0.161888 0.0 
-0.00905533 0.0318862 0.0 
0.0309766 -0.115713 0.0 
-0.102942 0.000686899 0.0 
0.0889057 -0.212643 0.0 
0.607019 -0.302821 0.0 
0.648667 0.0647977 0.0 
0.0265764 -0.0604496 0.0 
-0.129676 0.0699916 0.0 
0.876298 0.00710109 0.0 
0.0279762 0.156511 0.0 
0.168745 0.113379 0.0 
0 0 0.0 
-0.0199538 -0.102991 0.0 
-0.0394102 -0.0011916 0.0 
0.000665965 -0.08509 0.0 
0.940634 -0.0323276 0.0 
0.0601859 -0.135548 0.0 
0.426889 0.117064 0.0 
0.894031 -0.0233074 0.0 
0.045215 0.177036 0.0 
0.835856 0.0181639 0.0 
0.657471 -0.313667 0.0 
0.0718503 -0.186661 0.0 
0.0718606 -0.208823 0.0 
0.499265 0.09848 0.0 
0.981285 -0.0932801 0.0 
-0.155651 0.202814 0.0 
0.158187 -0.160535 0.0 
0.34866 0.0915227 0.0 
-0.00835938 -0.00106371 0.0 
-0.100221 0.244605 0.0 
0.854971 0.0113638 0.0 
0.00508304 0.145539 0.0 
-0.201175 0.26803 0.0 
0.769566 -0.0708877 0.0 
-0.0102297 -0.127668 0.0 
0.462737 0.110935 0.0 
1.04863 -0.122492 0.0 
0.969449 -0.0755453 0.0 
0.091627 -0.193452 0.0 
0.31517 0.0910797 0.0 
0.0444602 -0.185103 0.0 
0.0537082 -0.224325 0.0 
0.907598 -0.0053556 0.0 
0.0222543 0.0621584 0.0 
0.906955 -0.0101256 0.0 
0.9039 -0.0148071 0.0 
-0.0190703 0.0128812 0.0 
-0.0758564 0.0474887 0.0 
0.248275 -0.11801 0.0 
0.907987 -0.0719842 0.0 
0.240322 0.161718 0.0 
-0.182421 0.206266 0.0 
-0.18587 0.268595 0.0 
-0.172433 0.232851 0.0 
-0.119558 0.0471142 0.0 
0.627477 0.0529714 0.0 
-0.0775664 0.239362 0.0 
0.00587218 -0.160838 0.0 
0.668018 -0.017831 0.0 
-0.129226 0.0807128 0.0 
0 0 0.0 
-0.121481 0.0479912 0.0 
-0.0765147 -0.00258884 0.0 
-0.114684 0.122708 0.0 
0.957975 -0.0326184 0.0 
0.304568 0.0992617 0.0 
0.342741 -0.0537158 0.0 
1.07046 -0.128968 0.0 
1.01656 -0.111258 0.0 
-0.0911404 0.0671586 0.0 
0.907174 -0.00239051 0.0 
-0.106927 0.037887 0.0 
-0.0352319 -0.0284753 0.0 
0.185723 -0.117906 0.0 
0.582976 -0.298541 0.0 
0.134307 -0.188095 0.0 
-0.0209416 0.0568074 0.0 
0.456474 0.112087 0.0 
0.812988 -0.103468 0.0 
-0.183057 0.0460721 0.0 
0.155865 -0.0959881 0.0 
0.475761 0.0725395 0.0 
-0.0571459 -0.0174593 0.0 
0.278766 0.0722213 0.0 
0 0 0.0 
0.541269 0.0625756 0.0 
-0.0428166 0.214325 0.0 
0.055562 -0.164469 0.0 
-0.020757 0.0733509 0.0 
0.579632 0.0618159 0.0 
-0.00931188 -0.137705 0.0 
-0.0233732 0.0755858 0.0 
-0.127954 0.0999338 0.0 
0.00379974 0.168521 0.0 
0.56929 -0.0750603 0.0 
0.546722 -0.0611349 0.0 
-0.0888561 0.0351834 0.0 
0.0469623 -0.0553652 0.0 
0.086251 -0.189269 0.0 
-0.0118473 -0.0307228 0.0 
-0.0856537 0.0600686 0.0 
1.05337 -0.189107 0.0 
-0.075674 -0.111497 0.0 
-0.0442294 0.036153 0.0 
-3.45265e-71 4.13296e-71 0.0 
0.350861 0.069674 0.0 
0.33334 -0.0867045 0.0 
0.32885 -0.195388 0.0 
-0.0326701 -0.139116 0.0 
0.915454 -0.352401 0.0 
0.102222 -0.187368 0.0 
-0.090735 0.189185 0.0 
0.301766 -0.176609 0.0 
0.111373 0.135153 0.0 
-0.152254 0.0516351 0.0 
0.131422 -0.205845 0.0 
-0.133554 0.0741214 0.0 
-0.0591823 0.0426319 0.0 
0.794887 0.0274917 0.0 
0.000551669 0.149578 0.0 
-0.144028 0.0373323 0.0 
-0.0600043 0.0477625 0.0 
0.422133 -0.113576 0.0 
0.0577799 -0.149939 0.0 
0 0 0.0 
0.0338271 -0.146039 0.0 
0.968214 -0.345431 0.0 
-0.0207455 0.115634 0.0 
0.362321 -0.0137832 0.0 
0.0830162 -0.0502307 0.0 
0.409554 0.107188 0.0 
0.956597 -0.350281 0.0 
-0.0374873 0.105206 0.0 
-0.112792 -0.0590441 0.0 
0.285643 0.133577 0.0 
-9.2023e-160 -1.12901e-159 0.0 
0.618387 -0.305632 0.0 
-0.0184763 -0.132146 0.0 
-0.0996104 0.215605 0.0 
0.275439 0.0352334 0.0 
0.634603 -0.0787854 0.0 
0.154841 -0.140629 0.0 
-0.178743 0.191069 0.0 
0.677462 -0.307106 0.0 
0.0263507 -0.202324 0.0 
-0.0186825 -0.161892 0.0 
-0.0533917 0.0955187 0.0 
0.0715211 -0.158881 0.0 
-0.174759 0.177847 0.0 
0.12498 -0.225008 0.0 
-0.0550694 -0.0513577 0.0 
0.0847761 -0.176023 0.0 
-0.113818 0.151209 0.0 
0.0968324 -0.0264857 0.0 
0.0330135 -0.158802 0.0 
-0.0150437 0.0886662 0.0 
-0.0630784 -0.0882196 0.0 
-0.0562334 -0.0677034 0.0 
0.0491024 -0.123479 0.0 
-0.021881 -0.110337 0.0 
0.502187 -0.280051 0.0 
0.0367828 0.00568811 0.0 
-0.0251666 -5.60849e-05 0.0 
-0.0936444 0.156962 0.0 
0.123873 -0.207336 0.0 
-0.131766 0.100735 0.0 
0.0291717 -0.166526 0.0 
0.0972892 -0.193222 0.0 
0.0917661 -0.206015 0.0 
0.121898 0.096122 0.0 
-0.0726972 -0.0679056 0.0 
0.283247 0.153483 0.0 
0.0822885 -0.179016 0.0 
-0.150962 0.13276 0.0 
-0.226517 0.0776732 0.0 
0 0 0.0 
0.992388 -0.337642 0.0 
0.171387 -0.123134 0.0 
0.357634 0.131916 0.0 
-0.204033 0.249968 0.0 
0.0480461 -0.147391 0.0 
-0.0495867 -0.095164 0.0 
0.088968 -0.134798 0.0 
-0.00300242 -0.10788 0.0 
0.0577516 -0.179489 0.0 
-0.0621738 -0.0261142 0.0 
-0.176552 0.141273 0.0 
-0.0416007 0.132326 0.0 
0.0740366 0.0945705 0.0 
0.175979 0.177048 0.0 
0.838438 -0.334582 0.0 
0.61957 -0.0247589 0.0 
0 0 0.0 
-0.0504657 0.22613 0.0 
-0.135852 0.00268431 0.0 
0.0340438 -0.0344878 0.0 
0.00212855 -0.163171 0.0 
0.257011 -0.152045 0.0 
0.0161017 0.12478 0.0 
-0.0944224 -0.0172559 0.0 
0.106017 0.00587203 0.0 
0.692167 -0.0353549 0.0 
1.00066 -0.0616388 0.0 
0.769421 -0.326008 0.0 
0.0722697 -0.161912 0.0 
-0.0633971 0.1751 0.0 
0.546976 0.0501268 0.0 
1.04059 -0.318231 0.0 
1.0517 -0.308622 0.0 
0.464802 -0.25962 0.0 
-0.117751 0.0943998 0.0 
0.532011 -0.0138284 0.0 
0.576441 0.0644982 0.0 
0.672621 -0.325759 0.0 
0.0751456 -0.108369 0.0 
0.368907 0.0902884 0.0 
1.00262 -0.229754 0.0 
0.879717 -0.349631 0.0 
-0.0593802 0.0370768 0.0 
-0.118774 0.0732716 0.0 
-0.199555 0.0474301 0.0 
0.538942 0.0780338 0.0 
0.0854846 -0.15924 0.0 
0.895937 -0.333793 0.0 
-0.0165636 -0.073459 0.0 
0.254202 0.108146 0.0 
0.145455 0.169483 0.0 
0.296886 0.135652 0.0 
-0.191884 0.00368742 0.0 
-0.0490608 0.0348067 0.0 
0.813455 -0.261793 0.0 
-0.0558303 0.0398219 0.0 
0.764651 -0.107446 0.0 
0.979488 -0.34673 0.0 
0.154558 -0.105482 0.0 
-0.074028 -0.121643 0.0 
0.52192 -0.0866688 0.0 
0.166692 0.0059298 0.0 
0.96603 -0.325058 0.0 
0.182283 0.167049 0.0 
0.5279 0.040558 0.0 
0.553809 -0.291538 0.0 
0.0614633 0.0466183 0.0 
-0.186819 0.132513 0.0 
0 0 0.0 
0.0778734 0.155448 0.0 
0.0237357 -0.180523 0.0 
0.47324 0.0804755 0.0 
-0.11268 0.0440415 0.0 
0.0624333 0.0635617 0.0 
1.07587 -0.194248 0.0 
0.425905 -0.247093 0.0 
-0.0509689 -0.140916 0.0 
-0.10163 0.201957 0.0 
0 0 0.0 
0.129967 -0.177243 0.0 
0.283041 0.146257 0.0 
-0.145604 0.15196 0.0 
0.353322 -0.209119 0.0 
1.00633 -0.270218 0.0 
0.0692894 -0.0890773 0.0 
0.10392 0.0759094 0.0 
-0.0735164 0.215832 0.0 
0.321178 0.0699098 0.0 
-0.108585 0.0712219 0.0 
-0.181857 0.0665871 0.0 
0.662011 0.0625823 0.0 
-0.204103 0.0614601 0.0 
0.420071 0.0266777 0.0 
0.0978229 0.0415961 0.0 
0 0 0.0 
0.38451 -0.134274 0.0 
1.00043 -0.338138 0.0 
1.03299 -0.244587 0.0 
-0.158057 0.160402 0.0 
-0.123245 0.174244 0.0 
0.455529 -0.142956 0.0 
-0.036047 0.22832 0.0 
0.042348 -0.170213 0.0 
0.0356762 0.205846 0.0 
-0.0219355 -0.0141423 0.0 
0.27122 -0.0732707 0.0 
0.119636 0.179422 0.0 
-0.0237538 0.0308077 0.0 
0 0 0.0 
-0.109256 0.103867 0.0 
-0.0753501 0.0544319 0.0 
0.0204639 -0.182603 0.0 
-0.0778578 0.0161478 0.0 
0.0553792 0.163555 0.0 
0.272742 0.143934 0.0 
0 0 0.0 
-0.0774331 0.0321818 0.0 
0.0458079 -0.167421 0.0 
0.090554 -0.200299 0.0 
-0.165904 0.19796 0.0 
0.660687 0.0318265 0.0 
-0.0985773 0.254347 0.0 
0.551238 0.0870676 0.0 
0.682402 -0.163274 0.0 
0.0214 0.188751 0.0 
0.222202 -0.151457 0.0 
-0.0671278 -0.0788226 0.0 
-0.0290267 -0.00988969 0.0 
0.0963364 -0.111759 0.0 
0.546912 -0.296191 0.0 
-0.0337115 -0.127681 0.0 
0.127602 -0.16237 0.0 
-0.00352008 -0.118775 0.0 
-0.0157842 0.133001 0.0 
0.027329 0.199925 0.0 
-0.173915 0.177911 0.0 
0.26148 0.112445 0.0 
-0.099463 0.0207408 0.0 
-0.0292999 0.143279 0.0 
-0.0244691 0.165481 0.0 
0.132224 0.140389 0.0 
-0.0574391 -0.0984986 0.0 
-0.0611255 0.0135141 0.0 
0.00283082 -0.139107 0.0 
-0.051014 0.0329169 0.0 
-0.0356799 0.20399 0.0 
0.628973 -0.324793 0.0 
-0.0912709 0.0599006 0.0 
0.10071 -0.218154 0.0 
0.000256581 -0.128123 0.0 
0.178916 0.131416 0.0 
-0.133071 0.0835387 0.0 
0.29438 -0.1785 0.0 
-0.0653913 0.0070246 0.0 
-0.00254783 -0.111015 0.0 
-0.0231288 0.0459728 0.0 
0.0173992 0.218991 0.0 
0.255818 0.140613 0.0 
0.321194 0.135191 0.0 
0.0755353 -0.144838 0.0 
-0.13685 0.107914 0.0 
0.865797 -0.359449 0.0 
-0.0533533 0.0304534 0.0 
0.100428 0.199595 0.0 
0.976574 -0.0436128 0.0 
-0.163978 0.244236 0.0 
0.00492694 0.0989591 0.0 
0.454215 0.09474 0.0 
-0.140931 0.149995 0.0 
-0.102824 0.190013 0.0 
0.132066 -0.218086 0.0 
0.107231 -0.222247 0.0 
0.22144 0.157924 0.0 
-0.0990855 -0.0301765 0.0 
-0.0230745 -0.144099 0.0 
0.52525 0.0277802 0.0 
-0.035009 -0.0146815 0.0 
-0.210514 0.0215209 0.0 
0.125956 -0.148258 0.0 
0.40461 0.120331 0.0 
-0.0595098 0.137476 0.0 
0.932654 -0.216165 0.0 
0.203051 0.153043 0.0 
-0.0744855 -0.12303 0.0 
-0.00676874 0.121549 0.0 
0.912048 -0.339472 0.0 
-0.141326 0.0971167 0.0 
-0.122091 -0.012216 0.0 
-0.143669 0.243383 0.0 
0.671746 -0.338632 0.0 
1.0542 -0.275389 0.0 
0.831778 -0.121613 0.0 
0.0659447 -0.169168 0.0 
0.55157 0.078111 0.0 
-0.196588 0.231338 0.0 
0.0143117 -0.148582 0.0 
-0.0172804 -0.0572329 0.0 
0.190607 -0.188233 0.0 
-0.102606 0.00494487 0.0 
-0.00711588 -0.148542 0.0 
0.639707 -0.0415111 0.0 
-0.131276 0.114578 0.0 
0.203244 -0.128846 0.0 
0.0136465 0.0788605 0.0 
-0.00578952 -0.0357917 0.0 
0.0425711 -0.147207 0.0 
-0.186609 0.195818 0.0 
0.768962 -0.223992 0.0 
0.030719 -0.0364411 0.0 
-0.112647 0.0258354 0.0 
0.314417 0.127284 0.0 
0.964363 -0.237788 0.0 
-0.0490039 0.0172082 0.0 
-0.0274939 -0.150144 0.0 
-0.192046 0.0194822 0.0 
-0.204787 0.243259 0.0 
-0.0466071 -0.0400971 0.0 
-0.120812 0.0568531 0.0 
0.153936 -0.214679 0.0 
-0.108539 0.059735 0.0 
0.0980456 -0.182539 0.0 
1.0333 -0.320201 0.0 
0.0939531 0.13002 0.0 
-0.215486 0.154233 0.0 
-0.143463 0.0941523 0.0 
-0.167101 0.148606 0.0 
-0.155377 -0.0396929 0.0 
0.989352 -0.298856 0.0 
0.0728996 0.0406347 0.0 
1.02919 -0.19599 0.0 
0.0680318 -0.012881 0.0 
0.329946 0.100306 0.0 
0.599888 0.0693575 0.0 
0.0681116 0.143282 0.0 
0.239479 0.11768 0.0 
0.820873 -0.201735 0.0 
0 0 0.0 
0.771281 -0.350437 0.0 
0.0325535 0.202769 0.0 
0.362585 0.109547 0.0 
-0.141468 0.0622053 0.0 
0.165261 -0.194649 0.0 
0.658303 -0.32635 0.0 
-0.101169 -0.00368406 0.0 
-0.221313 0.196755 0.0 
0.0276049 -0.141315 0.0 
-0.147028 0.266584 0.0 
-0.24309 0.106098 0.0 
-0.163938 0.163018 0.0 
-0.11217 -0.0719901 0.0 
0.750529 -0.0919475 0.0 
0.542229 0.0737512 0.0 
-0.103618 -0.00763112 0.0 
0.390379 0.115268 0.0 
0.990221 -0.183545 0.0 
-0.0332938 0.172383 0.0 
0.862553 -0.360379 0.0 
0.0374262 -0.131366 0.0 
0.192706 -0.0993927 0.0 
-0.0343905 0.00839447 0.0 
-0.227682 0.0600816 0.0 
0.110539 -0.162196 0.0 
0.25772 0.133128 0.0 
-0.0577614 -0.0909239 0.0 
0.981158 -0.344489 0.0 
-0.183582 0.244707 0.0 
0.0268939 -0.170231 0.0 
1.00021 -0.20746 0.0 
0.0938752 0.177747 0.0 
0.178895 -0.020341 0.0 
0.129762 -0.174614 0.0 
0.0536208 -0.0707016 0.0 
-0.091761 0.105708 0.0 
-0.0117588 0.0572711 0.0 
-0.215032 0.0887717 0.0 
-0.0934099 0.180359 0.0 
0.88512 -0.137203 0.0 
-0.132891 0.0759826 0.0 
0.303601 0.145019 0.0 
0.699736 -0.338812 0.0 
0.378315 0.0889639 0.0 
-0.146949 0.138149 0.0 
1.05376 -0.258188 0.0 
-0.0881822 0.0701019 0.0 
0.992833 -0.312875 0.0 
0.100804 0.159412 0.0 
0.0732792 -0.145344 0.0 
0.829557 -0.362354 0.0 
0.149795 0.0619882 0.0 
0.0583564 -0.208704 0.0 
0.486164 0.0612322 0.0 
1.03674 -0.311373 0.0 
-0.0108935 0.154446 0.0 
0.640983 -0.16363 0.0 
-0.123828 0.0534699 0.0 
-0.173694 0.214437 0.0 
0.532181 -0.152676 0.0 
0.623025 0.0698274 0.0 
-0.0361304 -0.0716058 0.0 
0.0578684 -0.117276 0.0 
0.463197 -0.00770646 0.0 
0.335902 0.139259 0.0 
-0.11477 -0.0451 0.0 
-0.0258121 0.0433899 0.0 
-0.144855 0.122221 0.0 
0.355933 0.114658 0.0 
0.731209 0.0182234 0.0 
-0.0623877 0.065066 0.0 
0.813623 -0.355124 0.0 
-0.0483729 0.0420305 0.0 
0.0587335 0.128695 0.0 
-0.118354 0.0378533 0.0 
0.684934 -0.341382 0.0 
-0.121918 0.193446 0.0 
0.0258076 -0.161258 0.0 
0.146226 0.0370333 0.0 
0.0433917 -0.157451 0.0 
0.151483 0.183128 0.0 
-0.0148223 -0.0414881 0.0 
-0.0983086 0.0903675 0.0 
0.0365406 -0.0433877 0.0 
-0.247469 0.0973403 0.0 
-0.16724 0.181442 0.0 
-0.0537186 -0.0109901 0.0 
-0.0715416 0.0797236 0.0 
0.486512 -0.0235041 0.0 
-0.0249644 0.16094 0.0 
0 0 0.0 
-0.151712 0.163264 0.0 
0.362544 0.0970742 0.0 
0.124328 -0.0959684 0.0 
0.723319 -0.250442 0.0 
0.0152327 -0.113536 0.0 
0.730797 -0.351251 0.0 
-0.0522981 0.184521 0.0 
-0.0458195 0.117938 0.0 
0.0605429 -0.155698 0.0 
0.939334 -0.353923 0.0 
0.0184616 -0.147915 0.0 
0.00868184 -0.0844719 0.0 
1.05682 -0.112164 0.0 
0.495148 0.0641859 0.0 
0.404441 0.0877208 0.0 
0.148149 -0.207411 0.0 
-0.0441435 -0.0282814 0.0 
0.934061 -0.33935 0.0 
-0.136146 -0.0211768 0.0 
-0.0875823 0.106905 0.0 
1.00357 -0.251997 0.0 
0.432322 0.0078654 0.0 
-0.106625 0.166966 0.0 
0.329407 0.114298 0.0 
0.384637 -0.0852451 0.0 
-0.0228688 -0.0796483 0.0 
0.445126 0.0771504 0.0 
-0.055619 -0.120627 0.0 
0.287593 -0.171476 0.0 
0.684269 -0.323405 0.0 
-0.177753 0.253507 0.0 
-0.0150394 0.211401 0.0 
-0.207854 0.11653 0.0 
1.10664 -0.214705 0.0 
-0.137439 0.0878332 0.0 
-0.23613 0.0865836 0.0 
-0.128405 0.0232543 0.0 
-0.0824054 -0.0167486 0.0 
-0.109651 0.0328709 0.0 
-0.0980704 0.034066 0.0 
-0.152584 0.021717 0.0 
0.718761 -0.111992 0.0 
-0.163271 0.218896 0.0 
0.415555 0.0582018 0.0 
0.430326 0.118109 0.0 
-0.0846873 -0.0661281 0.0 
-0.129746 0.0730377 0.0 
-0.127765 0.0621587 0.0 
0.446969 0.113819 0.0 
0.0475315 -0.062874 0.0 
0.318492 0.0456348 0.0 
1.09009 -0.203654 0.0 
0.288707 0.112333 0.0 
0 0 0.0 
0.568659 0.0804865 0.0 
0.675321 0.0589515 0.0 
0.850297 -0.35271 0.0 
0.234522 -0.0834535 0.0 
0.734823 -0.32247 0.0 
-0.116402 0.179465 0.0 
0.00965064 0.22248 0.0 
-0.10988 0.0169542 0.0 
-0.165556 0.158252 0.0 
0.738721 -0.352778 0.0 
0.887292 -0.336899 0.0 
-0.172261 -0.0160826 0.0 
0.0514299 -0.215296 0.0 
-0.154638 0.185541 0.0 
-0.0992451 0.114499 0.0 
0.375254 0.131814 0.0 
0.108731 -0.17554 0.0 
0.0622618 -0.14511 0.0 
-0.075434 0.0498965 0.0 
-0.0986179 0.211843 0.0 
0.427256 -0.239596 0.0 
0.46619 0.0523595 0.0 
0.406505 0.0759521 0.0 
0.310122 0.144655 0.0 
1.07412 -0.24389 0.0 
0.490161 0.0747853 0.0 
0.591518 -0.207211 0.0 
-0.188529 0.0920249 0.0 
0.384091 0.015606 0.0 
-0.165309 0.163383 0.0 
0.417683 -0.233317 0.0 
0.0024556 -0.0667264 0.0 
-0.216741 0.0780566 0.0 
0.147024 0.178306 0.0 
-0.0584285 -0.121265 0.0 
-0.108487 0.0495962 0.0 
0.31396 -0.0238502 0.0 
0.907306 -0.359275 0.0 
0.76686 -0.343645 0.0 
0.798821 -0.354041 0.0 
0.440619 -0.0356422 0.0 
0.0702218 -0.195528 0.0 
-0.0896771 -0.0183241 0.0 
-0.138989 0.0940597 0.0 
0.00424372 -0.171226 0.0 
0.251723 0.133689 0.0 
-0.0638535 0.178428 0.0 
0.425567 -0.13538 0.0 
-0.141005 0.105315 0.0 
0.0388974 -0.0453091 0.0 
-0.230487 0.102504 0.0 
-0.0715189 0.107486 0.0 
-0.120699 0.156722 0.0 
-0.00302331 -0.169299 0.0 
-0.0368517 0.036198 0.0 
0.0074799 -0.150596 0.0 