<VTKFile type="UnstructuredGrid" version="0.1" byte_order="LittleEndian">
  <UnstructuredGrid>
    <Piece NumberOfPoints="16262" NumberOfCells="32095">
      <Points>
        <DataArray type = "Float64" NumberOfComponents="3" format="ascii">
0.931329 1.04233 0.0 
0.885534 1.07371 0.0 
1.00978 0.998584 0.0 
1.01107 0.999866 0.0 
0 0 0.0 
1.00666 0.996445 0.0 
1.01034 0.999844 0.0 
1.00905 0.99834 0.0 
1.00841 0.997679 0.0 
0.554393 0.839136 0.0 
0.932725 0.973499 0.0 
0.478389 0.712474 0.0 
0.720062 0.889437 0.0 
0 0.509326 0.0 
3.21438 0.899288 0.0 
1.91077 0.940758 0.0 
1.4879 0 0.0 
1.01598 0.997827 0.0 
1.01941 0.996828 0.0 
0.894156 1.0374 0.0 
1.53732 0.838956 0.0 
1.01605 0 0.0 
1.01579 0.998583 0.0 
1.01157 0.996287 0.0 
3.5 0.898236 0.0 
2.58102 0.90274 0.0 
1.01937 0.999498 0.0 
1.63145 0.931353 0.0 
2.21652 0.91476 0.0 
2.28868 0.492617 0.0 
3.01138 0.800169 0.0 
1.01557 0.999316 0.0 
1.73338 0.943991 0.0 
1.01189 0.996983 0.0 
1.01945 0.995954 0.0 
1.0195 0.998645 0.0 
1.69514 0.938256 0.0 
1.88447 0.938823 0.0 
1.02085 0.999546 0.0 
1.01431 0.99664 0.0 
1.01868 0.997235 0.0 
0.764133 0.794569 0.0 
2.3569 0.918186 0.0 
1.01239 0.996353 0.0 
1.02005 0.997921 0.0 
1.01256 0.999911 0.0 
1.01889 0.998009 0.0 
1.00513 0.989584 0.0 
1.01201 0.995633 0.0 
1.86907 0.943401 0.0 
1.62885 0.935223 0.0 
1.60309 0.734267 0.0 
2.75227 0.914336 0.0 
1.56484 0.932638 0.0 
2.48414 0.921418 0.0 
2.96337 0.914241 0.0 
1.80588 0.941371 0.0 
1.01308 0.995683 0.0 
1.01172 0.998325 0.0 
1.01205 0.999019 0.0 
1.45027 0.857642 0.0 
1.01537 0.999987 0.0 
1.01112 0.995649 0.0 
1.43318 0.923387 0.0 
2.47769 0 0.0 
1.01455 0.99867 0.0 
1.01143 0.997573 0.0 
1.79763 0.944302 0.0 
1.01217 0.997715 0.0 
1.01864 0.996442 0.0 
1.8256 0.937737 0.0 
1.98938 0.926308 0.0 
1.00957 0.996584 0.0 
2.82972 0.89566 0.0 
1.52536 0.932094 0.0 
2.01395 0.935437 0.0 
1.01327 0.997377 0.0 
1.51771 0.925459 0.0 
1.01117 0.998654 0.0 
1.36287 0.946986 0.0 
1.00966 0.997947 0.0 
2.29862 0.924109 0.0 
1.00743 0.996584 0.0 
1.02019 0.996481 0.0 
1.61836 0.942287 0.0 
1.39216 0.905605 0.0 
1.65929 0.926632 0.0 
1.39179 0.869815 0.0 
1.01671 0.996796 0.0 
3.1392 0.920834 0.0 
2.42327 0.926122 0.0 
1.17738 0.75259 0.0 
0.99177 1.04479 0.0 
2.27361 0.932977 0.0 
0.9932 0.990482 0.0 
2.99068 0.924921 0.0 
3.16702 0.91443 0.0 
1.00435 0.994198 0.0 
2.83953 0.927948 0.0 
3.5 0.917078 0.0 
2.13327 0.942571 0.0 
3.30153 0.91921 0.0 
3.3181 0.906581 0.0 
2.62224 0.92533 0.0 
1.42412 0.660773 0.0 
2.02622 0.943194 0.0 
2.06773 0.937165 0.0 
2.33666 0.935737 0.0 
2.21947 0.939819 0.0 
1.14203 0.854378 0.0 
3.35792 0.913019 0.0 
1.411 0.931047 0.0 
2.71581 0.930316 0.0 
2.80253 0.919344 0.0 
2.00319 0.940284 0.0 
1.00563 0.995599 0.0 
3.5 0.907737 0.0 
1.94309 0.942598 0.0 
2.84802 0.923415 0.0 
2.43201 0.930747 0.0 
2.18916 0.93642 0.0 
2.10641 0.939903 0.0 
1.37241 0.919645 0.0 
1.0118 0.999888 0.0 
1.51129 0.920132 0.0 
2.98514 0.919531 0.0 
1.92614 0.945009 0.0 
1.61679 0.256764 0.0 
1.00671 0.994442 0.0 
3.5 0.835678 0.0 
1.76161 0.947936 0.0 
1.68732 0.948276 0.0 
1.63413 0.949424 0.0 
1.21528 0.746205 0.0 
1.8312 0.946335 0.0 
1.01151 0.999194 0.0 
2.64416 0.919208 0.0 
1.01537 0.997371 0.0 
1.5677 0.928922 0.0 
2.00877 0.91836 0.0 
1.01944 0.997647 0.0 
1.02083 0.279389 0.0 
1.02009 0.997244 0.0 
1.35829 0.907647 0.0 
2.59538 0.880696 0.0 
1.67422 0.950537 0.0 
1.00876 0.99611 0.0 
0.785097 0.277989 0.0 
1.02006 0.99948 0.0 
1.38308 0.928174 0.0 
1.20119 0.785943 0.0 
3.23392 0.848723 0.0 
1.02044 0.998992 0.0 
2.00039 0.258443 0.0 
1.70322 0.888886 0.0 
1.97996 0 0.0 
1.14732 0.82946 0.0 
1.01855 0.995621 0.0 
1.01968 1.00009 0.0 
1.01088 0.999274 0.0 
1.70616 0.932219 0.0 
0.941039 1.08755 0.0 
1.14509 0.434483 0.0 
0.661423 0.838843 0.0 
2.98142 0.900929 0.0 
1.43651 0.900566 0.0 
1.01396 0.996038 0.0 
0.336671 0 0.0 
0.460795 0.405914 0.0 
1.01028 0.995882 0.0 
0.849443 0.455705 0.0 
0.647195 0.525504 0.0 
1.55194 0.945537 0.0 
1.74839 0.946401 0.0 
2.58918 0.931329 0.0 
0.788186 1.14205 0.0 
0.977934 1.02482 0.0 
1.01625 0.999197 0.0 
0.730691 0.72845 0.0 
3.5 0.405614 0.0 
1.70742 0.935385 0.0 
0.925518 1.1327 0.0 
1.13961 0.887493 0.0 
1.62488 0.947403 0.0 
0.856897 0.950307 0.0 
0.675647 0 0.0 
0.760877 0.611134 0.0 
1.57283 0.947082 0.0 
1.4514 0.936255 0.0 
1.35005 0.888064 0.0 
3.5 0 0.0 
2.91278 0.598442 0.0 
1.72923 0.949707 0.0 
0.984223 0.998591 0.0 
1.01491 0.995938 0.0 
0.825251 1.11966 0.0 
0.968775 1.00357 0.0 
1.01665 0.998355 0.0 
3.5 0.743553 0.0 
1.02053 0.998372 0.0 
0.988462 1.00878 0.0 
1.41395 0.935817 0.0 
2.87604 0.908297 0.0 
1.59585 0.950464 0.0 
2.98249 0 0.0 
1.0207 0.997669 0.0 
1.01663 1.00002 0.0 
1.31029 0.83114 0.0 
1.01728 0.998851 0.0 
1.6178 0.940062 0.0 
1.55601 0.948406 0.0 
1.33052 0.494892 0.0 
1.22751 0.810458 0.0 
1.14722 0.802201 0.0 
1.34639 0.853858 0.0 
1.00818 0.99676 0.0 
0.925431 1.01738 0.0 
1.40138 0.92505 0.0 
1.24555 0.775373 0.0 
1.43283 0.949736 0.0 
0.963458 1.02675 0.0 
1.30144 0.775531 0.0 
0.993563 1.07634 0.0 
1.44 0.778283 0.0 
0.981081 0.995779 0.0 
1.30266 0.638263 0.0 
0.723311 1.13641 0.0 
0.995298 1.00739 0.0 
1.53229 0.947408 0.0 
0.914442 1.06057 0.0 
0.901234 1.13529 0.0 
1.19156 0.702143 0.0 
1.17009 0.784598 0.0 
1.81198 0.948956 0.0 
1.37036 0.811725 0.0 
1.12986 0.909688 0.0 
1.39877 0.948417 0.0 
1.63211 0.951103 0.0 
1.16355 0.857677 0.0 
0.991181 1.00157 0.0 
0.975532 1.01251 0.0 
1.21846 0.657938 0.0 
1.12612 0.933704 0.0 
0.978588 1.01168 0.0 
1.2667 0.819964 0.0 
1.18242 0.841191 0.0 
0.969702 1.07672 0.0 
1.59056 0.94876 0.0 
1.16172 0.839455 0.0 
1.01427 0.997993 0.0 
1.0212 0.99447 0.0 
1.34943 0.728956 0.0 
1.26053 0.715117 0.0 
0.98617 1.01833 0.0 
0.958971 0.998642 0.0 
1.19851 0.818304 0.0 
0.988227 0.995515 0.0 
0.99789 0.991897 0.0 
0.938398 1.12263 0.0 
1.20814 0.839422 0.0 
1.17335 0.814343 0.0 
0.981396 1.03696 0.0 
0.993807 1.04899 0.0 
1.13127 0.899196 0.0 
1.01287 0.997859 0.0 
1.56596 0.943373 0.0 
1.01047 0.998818 0.0 
1.01383 0.998621 0.0 
1.48836 0.929652 0.0 
2.11766 0.928041 0.0 
1.71831 0.928894 0.0 
1.96524 0.938097 0.0 
1.0152 0.998737 0.0 
2.55755 0.851113 0.0 
0.992183 1.03697 0.0 
1.726 0.941814 0.0 
0.8931 0.984651 0.0 
2.10026 0.895741 0.0 
3.1039 0.907593 0.0 
1.0107 0.997437 0.0 
3.30569 0.89104 0.0 
1.01355 0.997947 0.0 
1.60299 0.945055 0.0 
2.89516 0.883389 0.0 
1.00883 0.99692 0.0 
1.01258 0.99923 0.0 
0.889993 1.00284 0.0 
1.58981 0.938056 0.0 
0.987864 1.02269 0.0 
1.835 0.928287 0.0 
1.01246 0.998435 0.0 
0.985381 1.08978 0.0 
2.9404 0.858957 0.0 
1.01311 0.998573 0.0 
1.01755 0.998317 0.0 
1.93333 0.930437 0.0 
2.6563 0.892171 0.0 
2.45203 0.911382 0.0 
0.242485 1.16147 0.0 
1.02049 1.00011 0.0 
2.55959 0.915638 0.0 
1.01468 0.997328 0.0 
0.953895 1.02901 0.0 
3.5 0.888534 0.0 
0.959176 1.03106 0.0 
0.999498 0.992675 0.0 
1.44335 0.929408 0.0 
1.02434 0.999594 0.0 
0.987028 0.995615 0.0 
1.0133 0.999931 0.0 
1.01115 0.996873 0.0 
0.989517 0.997735 0.0 
1.75056 0.939392 0.0 
0.962538 1.02193 0.0 
3.23686 0.877792 0.0 
0.954272 0.995919 0.0 
1.01336 0.999345 0.0 
0.9689 1.00981 0.0 
1.01267 0.997116 0.0 
1.58656 0.924504 0.0 
1.86996 0.934354 0.0 
0.943714 1.13755 0.0 
1.01336 0.996642 0.0 
0.964774 1.067 0.0 
1.77456 0.936317 0.0 
1.01479 0.999404 0.0 
1.01473 0.999971 0.0 
1.01402 0.999951 0.0 
0.912998 1.0235 0.0 
1.6709 0.945857 0.0 
1.66854 0.943368 0.0 
1.66087 0.913165 0.0 
1.67042 0.92129 0.0 
1.93047 0.922961 0.0 
1.01096 0.998109 0.0 
1.01773 0.99604 0.0 
1.016 1 0.0 
1.01604 0.996266 0.0 
1.01411 0.999198 0.0 
1.5392 0.937682 0.0 
1.01391 0.997321 0.0 
1.02442 1.00019 0.0 
0.987093 1.0054 0.0 
0.99144 1.01983 0.0 
1.00039 1.07849 0.0 
1.01774 0.995325 0.0 
1.01844 0.998469 0.0 
1.02166 0.996753 0.0 
1.0182 0.999557 0.0 
0.992193 1.00287 0.0 
1.01803 0.997717 0.0 
2.02066 0.911138 0.0 
1.44089 0.933531 0.0 
1.00998 0.997333 0.0 
1.01026 0.998023 0.0 
1.01087 0.996234 0.0 
1.01043 0.996724 0.0 
1.87484 0.695715 0.0 
1.84457 0.918559 0.0 
1.48534 0.933529 0.0 
0.910003 1.04204 0.0 
0.994534 1.01936 0.0 
1.01747 0.999525 0.0 
1.00623 1.0526 0.0 
1.45338 0.950302 0.0 
1.01794 0.998985 0.0 
1.0229 1.00016 0.0 
0.638828 0.709257 0.0 
0.681473 1.08409 0.0 
1.67939 0.940863 0.0 
2.1312 0.932928 0.0 
1.01727 1.00004 0.0 
1.64112 0.937519 0.0 
1.52042 0.935609 0.0 
1.01685 0.999174 0.0 
1.01767 0.996868 0.0 
1.91542 0.93615 0.0 
1.02112 0.995339 0.0 
2.33017 0.907676 0.0 
1.01807 1.00005 0.0 
1.0221 1.00014 0.0 
1.57561 0.941002 0.0 
0.943504 1.05991 0.0 
0.99416 1.00297 0.0 
0.997041 1.01516 0.0 
1.57909 0.935094 0.0 
1.00332 1.03545 0.0 
1.00716 0.995888 0.0 
2.66803 0.909296 0.0 
1.01927 0.995168 0.0 
1.10322 0.950486 0.0 
1.02129 1.00013 0.0 
1.0229 0.998817 0.0 
0.973855 0.996661 0.0 
1.02122 0.99802 0.0 
1.02127 0.998915 0.0 
1.02156 0.99963 0.0 
1.01578 0.995512 0.0 
1.00792 0.996051 0.0 
1.00542 0.994824 0.0 
0.995522 1.02642 0.0 
2.78724 0.903384 0.0 
1.01872 0.999204 0.0 
1.00948 0.995762 0.0 
2.38063 0.89836 0.0 
1.02108 0.992904 0.0 
0.971488 1.02063 0.0 
1.79868 0.932776 0.0 
1.01705 0.995075 0.0 
1.38802 0.94728 0.0 
1.01414 0.995288 0.0 
2.27926 0.929079 0.0 
0.964301 1.0482 0.0 
1.63934 0.542835 0.0 
1.01148 0.994966 0.0 
1.01241 0.994858 0.0 
1.01064 0.995083 0.0 
0.980153 1.02246 0.0 
1.02184 0.997584 0.0 
1.14977 0.873529 0.0 
1.0064 0.995731 0.0 
0.977632 1.06143 0.0 
1.36231 0.945385 0.0 
1.00832 0.995535 0.0 
1.99155 0.932862 0.0 
3.5 0.878822 0.0 
2.13992 0.819959 0.0 
0.98799 0.996681 0.0 
0.95037 1.08127 0.0 
1.26391 0.244413 0.0 
3.0772 0.89135 0.0 
0.784685 0.867298 0.0 
1.01512 0.998069 0.0 
0.990257 1.00109 0.0 
0.970449 1.03262 0.0 
1.01693 0.997525 0.0 
1.0168 0.995663 0.0 
1.02312 0.999553 0.0 
1.01888 1.00007 0.0 
1.00925 0.997467 0.0 
0.99465 0.991043 0.0 
2.1307 0.921816 0.0 
0.935528 1.06804 0.0 
0.989769 0.988786 0.0 
0.991722 1.00457 0.0 
0.993668 1.01376 0.0 
1.08059 0.542044 0.0 
0.828853 0.817322 0.0 
0.997206 1.02028 0.0 
0.991741 0.989037 0.0 
0.970116 0.987962 0.0 
0.977503 1.00119 0.0 
[...]
<PointData>
  <DataArray type = "Float64" Name="Vitesse" NumberOfComponents="3" format="ascii">
0.974337 0.0781034 0.0 
0.991345 0.0513286 0.0 
0.236422 -0.00121147 0.0 
0 0 0.0 
1 0 0.0 
0.639611 -0.0552686 0.0 
0 0 0.0 
0.29043 -0.00384586 0.0 
0.422069 -0.0167101 0.0 
0.994614 0.00546219 0.0 
0.929745 0.0354717 0.0 
0.996817 0.00267777 0.0 
0.986616 0.00921455 0.0 
1 0 0.0 
1.00275 -0.00038099 0.0 
0.950791 -0.00129915 0.0 
1.00813 0 0.0 
0.302023 -0.00616424 0.0 
0.393747 -0.0142059 0.0 
0.975823 0.0533797 0.0 
1.01189 -0.00356612 0.0 
1.00299 0 0.0 
0.198965 -0.000925982 0.0 
0.561417 -0.0322529 0.0 
1.00131 -0.000185482 0.0 
1.00707 -0.000947564 0.0 
0.0708738 0.000800483 0.0 
1.0013 -0.00353962 0.0 
1.00347 -0.0014405 0.0 
1.01354 -0.000893835 0.0 
1.01247 -0.00053852 0.0 
0.0957718 0.00108813 0.0 
0.949441 -0.00197857 0.0 
0.468071 -0.0199127 0.0 
0.488178 -0.0240799 0.0 
0.174857 -0.00073457 0.0 
0.980885 -0.00273164 0.0 
0.962728 -0.0015997 0.0 
0.0650461 0.00084719 0.0 
0.476823 -0.0209713 0.0 
0.353149 -0.0104678 0.0 
0.986502 0.00208248 0.0 
0.996675 -0.00107308 0.0 
0.540033 -0.0291091 0.0 
0.259753 -0.00458113 0.0 
0 0 0.0 
0.256566 -0.00409563 0.0 
0.782623 -0.0619587 0.0 
0.623513 -0.0415977 0.0 
0.939379 -0.00125598 0.0 
0.994403 -0.003396 0.0 
1.0121 -0.00379286 0.0 
0.993448 -0.000547314 0.0 
1.00028 -0.0037432 0.0 
0.987942 -0.000761736 0.0 
0.989714 -0.00033422 0.0 
0.957303 -0.0017874 0.0 
0.60264 -0.0379706 0.0 
0.265236 -0.00290125 0.0 
0.147299 0.00105884 0.0 
1.01258 -0.00280755 0.0 
0 0 0.0 
0.635894 -0.044596 0.0 
1.00971 0.000802963 0.0 
1.01292 0 0.0 
0.192483 -0.000374203 0.0 
0.388894 -0.0116457 0.0 
0.94072 -0.00155471 0.0 
0.357552 -0.00915143 0.0 
0.445517 -0.0188847 0.0 
0.972314 -0.00198775 0.0 
0.994429 -0.00184545 0.0 
0.562644 -0.0338804 0.0 
1.00804 -0.000681196 0.0 
1.00138 -0.00355358 0.0 
0.967735 -0.00129343 0.0 
0.393132 -0.0124577 0.0 
1.00603 -0.00377265 0.0 
0.213272 -0.000922348 0.0 
1.00053 0.00683302 0.0 
0.352581 -0.00900767 0.0 
0.988081 -0.00101013 0.0 
0.606755 -0.0461316 0.0 
0.423984 -0.0174242 0.0 
0.970183 -0.0029751 0.0 
1.01545 0.000792339 0.0 
1.00536 -0.00352143 0.0 
1.0159 -0.00228365 0.0 
0.426743 -0.0164027 0.0 
0.973023 -9.37048e-05 0.0 
0.978956 -0.000710988 0.0 
1.01172 -0.0198357 0.0 
1.0243 0.165644 0.0 
0.963531 -0.000694305 0.0 
0.768957 0.0220503 0.0 
0.965806 -8.31143e-05 0.0 
0.985627 -0.000207533 0.0 
0.758637 -0.0846558 0.0 
0.960631 -0.000132741 0.0 
0.975329 6.11114e-05 0.0 
0.924654 -0.000490171 0.0 
0.973292 -4.2427e-05 0.0 
0.994668 -0.000231431 0.0 
0.974757 -0.000425045 0.0 
1.01162 -0.00613741 0.0 
0.927397 -0.000698832 0.0 
0.957038 -0.000970087 0.0 
0.949551 -0.000450586 0.0 
0.935478 -0.000470309 0.0 
1.0249 -0.0385426 0.0 
0.98459 -0.00010787 0.0 
1.01036 0.00372232 0.0 
0.956402 -0.000179304 0.0 
0.983759 -0.000396766 0.0 
0.945907 -0.000984235 0.0 
0.722489 -0.0781922 0.0 
0.991233 -7.2136e-05 0.0 
0.937464 -0.00100334 0.0 
0.973214 -0.000252796 0.0 
0.964863 -0.000526141 0.0 
0.953601 -0.000702847 0.0 
0.941288 -0.0006979 0.0 
1.0182 0.00220566 0.0 
0 0 0.0 
1.00869 -0.00371571 0.0 
0.979272 -0.000209996 0.0 
0.923294 -0.000856805 0.0 
1.01085 -0.00183881 0.0 
0.75727 -0.0787987 0.0 
1.0126 -0.00036431 0.0 
0.917882 -0.00139907 0.0 
0.922827 -0.00183202 0.0 
0.917558 -0.00213137 0.0 
1.01334 -0.0161043 0.0 
0.92306 -0.00115202 0.0 
0.118665 0.00160525 0.0 
0.987805 -0.000568005 0.0 
0.369295 -0.0109517 0.0 
1.00427 -0.00373315 0.0 
1.00405 -0.00192729 0.0 
0.296991 -0.00666109 0.0 
1.00331 -0.00335361 0.0 
0.339144 -0.00992938 0.0 
1.0198 -0.000435741 0.0 
1.01148 -0.0010235 0.0 
0.903606 -0.00172015 0.0 
0.633565 -0.04719 0.0 
1.00072 -0.0020873 0.0 
0.0726556 0.000935585 0.0 
1.01627 0.00386745 0.0 
1.01653 -0.0190989 0.0 
1.01234 -0.000528071 0.0 
0.130317 0.000104212 0.0 
1.0125 -0.000872216 0.0 
1.01123 -0.00346276 0.0 
1.01122 0 0.0 
1.01848 -0.0319524 0.0 
0.532988 -0.0290402 0.0 
1.04309e-156 1.50519e-158 0.0 
0.105385 0.00171731 0.0 
0.996439 -0.00305968 0.0 
1.00872 0.0734955 0.0 
1.00531 -0.00655239 0.0 
0.990804 0.00628217 0.0 
1.00411 -0.000525878 0.0 
1.01203 -0.000197503 0.0 
0.551353 -0.030173 0.0 
1.00019 0 0.0 
0.999367 0.000116381 0.0 
0.628586 -0.0440677 0.0 
0.998884 -0.00414079 0.0 
0.996933 -0.00078592 0.0 
0.958343 -0.00310047 0.0 
0.931315 -0.00163902 0.0 
0.956925 -0.000267606 0.0 
1.00094 0.0278912 0.0 
0.942622 0.161986 0.0 
0.11201 0.0011369 0.0 
0.990497 0.000638649 0.0 
1.01453 -0.00033067 0.0 
0.989062 -0.00286391 0.0 
1.01682 0.0521208 0.0 
1.04168 -0.0480151 0.0 
0.936129 -0.00241567 0.0 
0.966701 0.0201407 0.0 
1.00058 0 0.0 
0.994233 -0.00262014 0.0 
0.944359 -0.00283897 0.0 
1.00043 0.000967061 0.0 
1.01939 -0.00296386 0.0 
1.0141 0 0.0 
1.01394 -0.000500161 0.0 
0.906421 -0.0014278 0.0 
0.812221 0.110096 0.0 
0.548875 -0.0298491 0.0 
0.99951 0.0337751 0.0 
0.889429 0.102699 0.0 
0.225999 -0.00213583 0.0 
1.01332 -0.000316082 0.0 
0.203324 -0.00204768 0.0 
0.835636 0.205467 0.0 
1.00676 0.00428417 0.0 
0.999062 -0.000507868 0.0 
0.910822 -0.00233045 0.0 
1.0137 0 0.0 
0.284761 -0.00626054 0.0 
0 0 0.0 
1.01874 -0.00822866 0.0 
0.156473 6.79357e-05 0.0 
0.980251 -0.0031658 0.0 
0.936036 -0.00259706 0.0 
1.00951 -0.00645153 0.0 
1.01951 -0.0160723 0.0 
1.01409 -0.0281194 0.0 
1.01795 -0.00515981 0.0 
0.568417 -0.0375325 0.0 
0.954937 0.0662032 0.0 
1.01393 0.0031512 0.0 
1.01647 -0.0141752 0.0 
0.962024 0.00650528 0.0 
0.948918 0.1208 0.0 
1.01617 -0.010226 0.0 
1.04871 0.10613 0.0 
1.0136 -0.00511131 0.0 
0.830176 0.0899445 0.0 
1.00981 -0.00945026 0.0 
0.998886 0.0213442 0.0 
0.780224 0.291459 0.0 
0.948304 -0.00261422 0.0 
0.987179 0.0656731 0.0 
1.01112 0.0466271 0.0 
1.00909 -0.0156058 0.0 
1.01446 -0.0229403 0.0 
0.904209 -0.000980581 0.0 
1.01607 -0.00568405 0.0 
1.0577 -0.066645 0.0 
0.982852 0.00924471 0.0 
0.901019 -0.00199443 0.0 
1.02928 -0.0306276 0.0 
0.747507 0.160568 0.0 
0.897328 0.14281 0.0 
1.00856 -0.012473 0.0 
1.09287 -0.0924317 0.0 
0.887219 0.1534 0.0 
1.01946 -0.0116752 0.0 
1.02461 -0.0240519 0.0 
1.02128 0.095969 0.0 
0.928034 -0.00254312 0.0 
1.02289 -0.0296619 0.0 
0.293884 -0.00509828 0.0 
0.600856 -0.0404964 0.0 
1.0135 -0.00825103 0.0 
1.01242 -0.0124066 0.0 
0.913414 0.203877 0.0 
0.904355 0.078364 0.0 
1.0204 -0.0204238 0.0 
0.780027 0.0841397 0.0 
0.742022 -0.017713 0.0 
1.01927 0.0580832 0.0 
1.02405 -0.0183357 0.0 
1.01875 -0.0248412 0.0 
0.985096 0.160507 0.0 
1.03518 0.157533 0.0 
1.04781 -0.0595474 0.0 
0.327506 -0.0071424 0.0 
0.969598 -0.00332046 0.0 
0.189043 0.000446992 0.0 
0.20357 -0.000575106 0.0 
1.00383 -0.00236528 0.0 
0.985849 -0.00127359 0.0 
1.00119 -0.00314124 0.0 
0.959702 -0.00130277 0.0 
0.17983 -0.000218315 0.0 
1.012 -0.00108078 0.0 
1.00979 0.188626 0.0 
0.962414 -0.00223157 0.0 
0.957152 0.0359609 0.0 
1.011 -0.00174614 0.0 
0.996452 -0.000355075 0.0 
0.420728 -0.0148102 0.0 
1.00693 -0.000375424 0.0 
0.307323 -0.00566953 0.0 
0.955669 -0.00284565 0.0 
1.01062 -0.000671683 0.0 
0.532153 -0.0304807 0.0 
0.11154 0.00154478 0.0 
0.963134 0.0423533 0.0 
0.989189 -0.003579 0.0 
0.941082 0.209748 0.0 
0.997156 -0.00250691 0.0 
0.241291 -0.00197607 0.0 
1.04079 0.088878 0.0 
1.01204 -0.000657902 0.0 
0.215061 -0.000771138 0.0 
0.225623 -0.0024148 0.0 
0.988042 -0.00191345 0.0 
1.01011 -0.000920457 0.0 
1.00262 -0.00102934 0.0 
0.999792 0.00417466 0.0 
2.33514e-148 3.36963e-150 0.0 
0.995713 -0.000775672 0.0 
0.383112 -0.0115016 0.0 
0.955753 0.103355 0.0 
1.00698 -0.000264448 0.0 
0.95841 0.112871 0.0 
0.73566 -0.0383118 0.0 
1.00671 0.000845274 0.0 
0.0596043 0.000638958 0.0 
0.79005 0.0870086 0.0 
0 0 0.0 
0.495391 -0.0231833 0.0 
0.763341 0.104893 0.0 
0.971726 -0.00229629 0.0 
0.93871 0.11669 0.0 
1.01086 -0.000482114 0.0 
0.909958 0.0696666 0.0 
0.09232 0.00185243 0.0 
0.90257 0.117276 0.0 
0.438168 -0.0169114 0.0 
1.00719 -0.00367507 0.0 
0.98098 -0.00199859 0.0 
1.0237 0.0534841 0.0 
0.490334 -0.0226011 0.0 
1.01066 0.10093 0.0 
0.981383 -0.00238833 0.0 
0.0834998 0.00153605 0.0 
0 0 0.0 
0 0 0.0 
0.963858 0.0603848 0.0 
0.943341 -0.00217479 0.0 
0.959603 -0.00244724 0.0 
1.01024 -0.00364652 0.0 
1.00817 -0.00357353 0.0 
1.0011 -0.00218024 0.0 
0.308471 -0.00561444 0.0 
0.500339 -0.0245013 0.0 
0 0 0.0 
0.497527 -0.023637 0.0 
0.114644 0.000926969 0.0 
0.99222 -0.00366195 0.0 
0.393049 -0.0124132 0.0 
0 0 0.0 
0.816839 0.173752 0.0 
0.930163 0.238407 0.0 
1.05823 0.103429 0.0 
0.571306 -0.0337387 0.0 
0.201316 -0.00167735 0.0 
0.379258 -0.0141302 0.0 
0.0632316 0.000867208 0.0 
0.741662 0.188725 0.0 
0.299487 -0.00652251 0.0 
1.00813 -0.00196532 0.0 
1.00399 0.0015012 0.0 
0.449032 -0.0187205 0.0 
0.331246 -0.00746295 0.0 
0.579294 -0.0353336 0.0 
0.528511 -0.0280028 0.0 
1.01242 -0.00270732 0.0 
1.0071 -0.00273719 0.0 
1.00045 -0.00215831 0.0 
0.976048 0.06241 0.0 
0.936348 0.26385 0.0 
0.0671619 0.00123807 0.0 
1.0713 0.154436 0.0 
0.949463 0.0039652 0.0 
0.137098 0.000413626 0.0 
0 0 0.0 
0.993823 0.00187056 0.0 
0.995745 0.018024 0.0 
0.971515 -0.00261605 0.0 
0.970655 -0.00101143 0.0 
0 0 0.0 
0.987396 -0.00316925 0.0 
0.996914 -0.0034902 0.0 
0.114173 0.000719063 0.0 
0.407418 -0.0147177 0.0 
0.971588 -0.00166635 0.0 
0.528157 -0.030118 0.0 
1.00672 -0.00129418 0.0 
2.74741e-174 3.96454e-176 0.0 
3.52688e-200 3.74467e-202 0.0 
0.979768 -0.00348459 0.0 
0.992293 0.0864429 0.0 
0.707615 0.214768 0.0 
0.906792 0.306864 0.0 
0.996697 -0.00377452 0.0 
1.05143 0.218367 0.0 
0.682462 -0.0618117 0.0 
1.00108 -0.000740663 0.0 
0.566053 -0.0340171 0.0 
1.07838 -0.181293 0.0 
2.59052e-140 3.73814e-142 0.0 
0.143496 -0.000393004 0.0 
0.863289 0.0884908 0.0 
0.240715 -0.003928 0.0 
0.137183 -5.83617e-05 0.0 
0.0556467 0.000791912 0.0 
0.57976 -0.0342682 0.0 
0.654308 -0.0534521 0.0 
0.75193 -0.0836086 0.0 
0.985004 0.239543 0.0 
1.00438 -0.000658646 0.0 
0.107489 0.0006952 0.0 
0.652912 -0.0498896 0.0 
1.01015 -0.0012855 0.0 
0.701665 -0.0577088 0.0 
0.92937 0.13912 0.0 
0.989793 -0.00248086 0.0 
0.602727 -0.0380471 0.0 
0.992064 0.00899887 0.0 
0.623957 -0.0409663 0.0 
0.9763 -0.000852319 0.0 
0.988889 0.115319 0.0 
1.01145 -0.00302584 0.0 
0.686858 -0.0535822 0.0 
0.682507 -0.0517655 0.0 
0.690301 -0.0548797 0.0 
0.933487 0.171559 0.0 
0.286114 -0.00684625 0.0 
1.035 -0.0387555 0.0 
0.706047 -0.0705129 0.0 
1.0191 0.118158 0.0 
1.00643 0.00628726 0.0 
0.690394 -0.0599516 0.0 
0.978292 -0.00153654 0.0 
1.0103 -0.000279539 0.0 
1.01178 -0.00156388 0.0 
0.780352 0.0951893 0.0 
1.00991 0.081322 0.0 
1.00662 -0.00309628 0.0 
1.00818 -0.000537775 0.0 
0.981952 0.00696561 0.0 
0.275875 -0.00417635 0.0 
0.758266 0.149153 0.0 
0.963377 0.136639 0.0 
0.333448 -0.00841194 0.0 
0.551337 -0.0307356 0.0 
0.064083 0.000686889 0.0 
1.87293e-165 2.70266e-167 0.0 
0.441602 -0.018249 0.0 
0.758012 0.0132031 0.0 
0.997486 -0.00145662 0.0 
0.995877 0.0774991 0.0 
0.79471 0.0331633 0.0 
0.766858 0.206882 0.0 
0.87939 0.27149 0.0 
1.00295 -0.00969383 0.0 
0.98071 1.65006e-05 0.0 
0.956153 0.280631 0.0 
0.784611 0.0247269 0.0 
0.871836 0.0592102 0.0 
0.855206 0.11228 0.0 
1.00124 -0.00642442 0.0 
1.00652 -0.0199659 0.0 
0.47454 -0.0210985 0.0 
1.03905 -0.0683587 0.0 
0.996236 -0.0066472 0.0 
0.921217 0.0396645 0.0 
1.0034 0.104419 0.0 
0.799006 0.0475469 0.0 
0.881618 0.0589636 0.0 
1.00084 -0.0139614 0.0 
1.00634 -0.0253849 0.0 
0.914565 0.238205 0.0 
0.987235 0.0338242 0.0 
0.478897 -0.021887 0.0 
0.935962 0.0278582 0.0 
0.769721 0.0106845 0.0 
0.913314 0.0488268 0.0 
0.984919 0.213243 0.0 
1.00157 -0.0182159 0.0 
0.976457 0.00463935 0.0 
0.97175 0.00888503 0.0 
0.847225 0.0339769 0.0 
0.985611 -0.00395596 0.0 
0.925309 0.0287469 0.0 
0.945545 0.0242901 0.0 
0.899185 0.10255 0.0 
0.95744 0.214241 0.0 
1.01908 -0.0478459 0.0 
0.948212 0.0174002 0.0 
0.998793 -0.0103926 0.0 
0.99296 -0.00937063 0.0 
0.95334 0.0214637 0.0 
1.05531 0.197312 0.0 
0.989933 -0.00447195 0.0 
0.954317 0.0873054 0.0 
0.966803 0.012943 0.0 
1.00428 -0.0029705 0.0 
0.82089 0.0526834 0.0 
0.813032 0.0432719 0.0 
0.854182 0.0581202 0.0 
1.00903 0.249651 0.0 
0.702042 0.235483 0.0 
0.978464 0.177526 0.0 
1.03408 0.0941855 0.0 
0.772072 -0.0730197 0.0 
0.900296 0.156679 0.0 
0.92295 0.00313456 0.0 
0.787866 -0.0549825 0.0 
0.753011 0.176789 0.0 
0.789969 -0.000843405 0.0 
0.729155 -0.0637493 0.0 
0.743172 -0.0789549 0.0 
0.0828752 0.000879605 0.0 
1.02676 0.0481722 0.0 
0.834213 -0.00165849 0.0 
0.744034 -0.0296229 0.0 
1.01874 0.238087 0.0 
0.780601 -0.071374 0.0 
1.06246 -0.103357 0.0 
0.954645 0.0960224 0.0 
0.921355 0.0700691 0.0 
0 0 0.0 
0.780726 -0.0773212 0.0 
0.973347 0.00684544 0.0 
0.836706 0.0112335 0.0 
1.0674 0.191953 0.0 
0.999987 0.0959193 0.0 
1.04055 0.20509 0.0 
0.841491 0.0229247 0.0 
0.753521 -0.0657605 0.0 
0.191019 -0.00237592 0.0 
1.00869 -0.0297851 0.0 
0.783096 -0.0730926 0.0 
0.827709 0.0241437 0.0 
0.967159 0.190177 0.0 
1.03206 -0.0756871 0.0 
0.743839 0.22396 0.0 
0.754239 -0.0564721 0.0 
1.05225 -0.167937 0.0 
1.08582 -0.128019 0.0 
0.77906 -0.0693302 0.0 
0.589975 0.00419839 0.0 
0.809471 0.138175 0.0 
1.04385 -0.103523 0.0 
0.904756 -0.00215577 0.0 
0.843948 0.0026039 0.0 
0.901875 -0.00169218 0.0 
0.914092 0.0824224 0.0 
0.959657 0.00355339 0.0 
0.765344 -0.0716498 0.0 
1.01568 0.224641 0.0 
1.04418 -0.131611 0.0 
0.774244 -0.0500596 0.0 
0.769292 -0.0310126 0.0 
0.749253 -0.0470801 0.0 
0.907223 0.267711 0.0 
1.05585 -0.181959 0.0 
0.999121 0.0676943 0.0 
1.04325 -0.0921893 0.0 
0.889671 0.248587 0.0 
1.01239 0.00231592 0.0 
0.921671 0.00090077 0.0 
1.00725 -0.104181 0.0 
0.745541 -0.0394475 0.0 
0.966303 0.149585 0.0 
1.02644 0.0598514 0.0 
1.02971 -0.0480541 0.0 
0.901993 0.192337 0.0 
1.02875 -0.0650102 0.0 
0.188025 -0.00170366 0.0 
1.09668 0.155328 0.0 
1.05489 -0.115028 0.0 
1.07104 -0.0995901 0.0 
0.781144 -0.0736742 0.0 
1.02531 -0.0834107 0.0 
1.02394 -0.0733346 0.0 
0.750259 -0.075228 0.0 
0.994329 0.0248 0.0 
0.76277 -0.0753007 0.0 
1.02576 0.0792887 0.0 
0.923044 0.318386 0.0 
1.07156 -0.0838845 0.0 
0.773448 -0.0703763 0.0 
1.00861 0.163242 0.0 
0.892102 0.295968 0.0 
1.07002 0.167778 0.0 
0.746454 -0.0640301 0.0 
0.907803 0.28749 0.0 
0.948522 0.0768289 0.0 
0.810345 -0.0219004 0.0 
1.07394 0.138992 0.0 
1.00188 0.0776868 0.0 
0.793354 -0.0737849 0.0 
0.7921 -0.0738598 0.0 
0.790694 -0.0734693 0.0 
0.786083 -0.0723351 0.0 
0.77837 -0.0780865 0.0 
0.911455 0.0964366 0.0 
0.902395 0.168365 0.0 
0.918359 0.139422 0.0 
0.810247 -0.00897478 0.0 
1.0091 0.113378 0.0 
0.780799 -0.00681901 0.0 
0.799967 -0.0175612 0.0 
1.00378 0.138918 0.0 
0.815053 0.0201661 0.0 
0.908999 -0.000604035 0.0 
0.991107 0.226855 0.0 
1.03425 0.0616194 0.0 
0.751223 -0.0684647 0.0 
0.56958 0.00543374 0.0 
0.817863 0.0319505 0.0 
0.697079 -0.0576122 0.0 
0.746421 -0.0635832 0.0 
0.763253 -0.0235135 0.0 
1.02137 0.207088 0.0 
0.725705 -0.0594585 0.0 
0.77582 -0.0620974 0.0 
0.82065 0.319946 0.0 
0.995657 0.182103 0.0 
0.130739 0.00215513 0.0 
0.769386 -0.0697441 0.0 
0 0 0.0 
0.921924 0.173882 0.0 
0.784659 -0.0726952 0.0 
0.650009 -0.0457575 0.0 
0.798643 -0.0078192 0.0 
0.977414 0.227878 0.0 
1.08313 0.166237 0.0 
0.73421 -0.069255 0.0 
1.03802 0.0699957 0.0 
0.721809 0.465018 0.0 
0.719446 -0.0585472 0.0 
0.757583 -0.0467716 0.0 
0.888995 0.114504 0.0 
0.750909 -0.0709597 0.0 
0.789547 -0.0690602 0.0 
0.774624 -0.0384642 0.0 
0.985431 -0.0730018 0.0 
0.806741 0.0322258 0.0 
0.982651 -0.122086 0.0 
0.112324 0.00184875 0.0 
0.947672 0.11026 0.0 
0.239895 -0.00436871 0.0 
0.512302 -0.0294826 0.0 
0.778226 -0.0743449 0.0 
1.03302 0.190568 0.0 
0.765538 -0.0729055 0.0 
1.06245 -0.150711 0.0 
0.315408 -0.00793219 0.0 
0.20053 -0.000735507 0.0 
0.322771 -0.00988805 0.0 
0.619121 -0.040893 0.0 
0.789057 -0.0621916 0.0 
0.824505 0.0394368 0.0 
0.8357 0.141048 0.0 
0.944925 0.00112271 0.0 
0.7888 -0.0141347 0.0 
0.76116 -0.0818242 0.0 
0.604863 0.0109497 0.0 
0.772009 0.0348573 0.0 
0.306557 -0.00692158 0.0 
0.812254 0.00591868 0.0 
0.982439 0.194732 0.0 
1.054 -0.0975742 0.0 
0.87519 0.0485976 0.0 
0.783173 -0.0718722 0.0 
0.935986 0.00198868 0.0 
1.04255 -0.184615 0.0 
0.78432 -0.0747933 0.0 
0.960232 0.0174379 0.0 
0.996555 -0.0951969 0.0 
0.785714 -0.07596 0.0 
0.75538 0.0240577 0.0 
0 0 0.0 
0.126653 0.00182882 0.0 
0.656553 -0.00232645 0.0 
0.985408 -0.10076 0.0 
0.785231 -0.0473335 0.0 
0.791014 -0.0250346 0.0 
0.973151 -0.101399 0.0 
1.05925 -0.13192 0.0 
0.753745 -0.0840769 0.0 
0.991978 0.0595973 0.0 
0.731604 0.449551 0.0 
0.759395 -0.0788352 0.0 
0.992375 -0.123495 0.0 
0.39723 -0.0352625 0.0 
0.303584 0.215234 0.0 
0.77115 -0.0791091 0.0 
0.136952 -0.000733095 0.0 
0.233079 -0.0109077 0.0 
0.80104 0.0182698 0.0 
0.817977 0.0654461 0.0 
0.765539 -0.0425629 0.0 
0.997145 -0.0848385 0.0 
0.985028 -0.0873165 0.0 
0.885074 0.0727347 0.0 
0.878034 0.286198 0.0 
0.340312 -0.0146368 0.0 
0.61593 0.00015404 0.0 
0.543806 0.239977 0.0 
0.992619 -0.108612 0.0 
0.966296 0.0849828 0.0 
0.590942 0.00222949 0.0 
0.56533 -0.0802901 0.0 
1.00257 -0.0559645 0.0 
1.00171 -0.0413236 0.0 
1.00774 -0.0457168 0.0 
0.895342 0.0813185 0.0 
1.00523 -0.0364055 0.0 
0.887729 0.189973 0.0 
1.0713 0.105541 0.0 
0.768755 -0.0621031 0.0 
1.05119 0.117003 0.0 
0.993419 -0.0776931 0.0 
0.763688 -0.0534104 0.0 
0.858983 0.0776354 0.0 
0.739188 -0.0670226 0.0 
1.06614 -0.189695 0.0 
0.938106 0.0477183 0.0 
1.04322 0.0626945 0.0 
0.980768 -0.112127 0.0 
0.961218 0.229185 0.0 
1.0129 -0.0353879 0.0 
0.769137 -0.0750044 0.0 
0.676853 -0.00334932 0.0 
0.995093 -0.0667675 0.0 
0.768279 -0.0808855 0.0 
0.997387 -0.133206 0.0 
0.744693 -0.0583763 0.0 
1.00605 -0.0875611 0.0 
0.755729 -0.0344886 0.0 
0.898938 0.236436 0.0 
0.782572 -0.0403715 0.0 
1.01313 -0.0563522 0.0 
0.968762 -0.117417 0.0 
0.872813 0.150447 0.0 
0.777248 -0.0770772 0.0 
0.790934 -0.0376059 0.0 
1.07001 -0.118427 0.0 
0.875488 0.257183 0.0 
1.04483 0.0762982 0.0 
0.762557 -0.0135135 0.0 
0 0 0.0 
0.789178 -0.0733014 0.0 
0.714132 -0.013752 0.0 
1.07182 -0.135326 0.0 
0.904135 0.251373 0.0 
0.852908 0.0223161 0.0 
1.08662 0.0860756 0.0 
1.10013 -0.111818 0.0 
0.906256 -0.0159554 0.0 
0.909977 0.147165 0.0 
0.727179 0.11131 0.0 
0.954849 0.0549204 0.0 
0.780906 -0.0551647 0.0 
0.922027 0.104437 0.0 
0.739246 0.0124578 0.0 
1.00269 -0.0303522 0.0 
0.960456 -0.00253108 0.0 
0.872882 0.188862 0.0 
0.690009 0.0014968 0.0 
0.829713 0.302385 0.0 
0.939888 0.00806127 0.0 
0.948115 0.0489634 0.0 
0.955106 0.00489615 0.0 
0.458479 -0.0135639 0.0 
0.681533 -0.106651 0.0 
0.800535 -0.0284819 0.0 
0.947204 0.00353841 0.0 
0.69458 -0.0773661 0.0 
0.77957 -0.07587 0.0 
0.935248 0.224562 0.0 
0.985033 -0.0194186 0.0 
0.800535 0.00286818 0.0 
0.364011 -0.0244803 0.0 
0.960646 0.0263811 0.0 
0.952152 -0.00399497 0.0 
0.467274 -0.0639505 0.0 
0.962245 0.00368974 0.0 
1.09299 0.0965051 0.0 
1.00778 -0.0661755 0.0 
0.967645 0.0064651 0.0 
0.92459 0.0194837 0.0 
0.924129 0.011285 0.0 
0.73133 0.155469 0.0 
1.11386 0.100048 0.0 
0.966553 -0.00024342 0.0 
0.882951 0.0953333 0.0 
0.62031 -0.0428685 0.0 
0.885311 0.214791 0.0 
1.04982 -0.0723777 0.0 
0.950716 -0.0210995 0.0 
0.758122 0.299271 0.0 
0.720065 0.249609 0.0 
0.878011 0.20273 0.0 
0 0 0.0 
0.931814 0.0212876 0.0 
0.970879 -0.00341056 0.0 
0.875176 0.337497 0.0 
0.990116 -0.0272649 0.0 
1.00974 -0.0829434 0.0 
0.995719 -0.0181042 0.0 
0.981821 -0.013901 0.0 
0.967212 -0.00814678 0.0 
0.710811 -0.00289328 0.0 
0.974414 -0.0141216 0.0 
0.951124 0.147465 0.0 
1.00892 0.0666794 0.0 
0.922796 0.128953 0.0 
0.343957 -0.0106092 0.0 
0.713903 -0.0746047 0.0 
0.954071 0.0136056 0.0 
0.978551 -0.0681055 0.0 
0.520735 -0.0283948 0.0 
0.977833 0.041267 0.0 
0.894067 0.0588337 0.0 
0.931787 -0.0286414 0.0 
0.956612 -0.0259784 0.0 
0.988104 -0.00940717 0.0 
0.979601 -0.02789 0.0 
0.993615 -0.0133977 0.0 
0.965882 -0.0581902 0.0 
0.982076 -0.007075 0.0 
0.994583 -0.0240732 0.0 
0.596997 -0.0388207 0.0 
0.975914 -0.00213563 0.0 
0.820784 0.0992571 0.0 
0.943496 -0.0160463 0.0 
0 0 0.0 
0.974018 -0.032623 0.0 
0.965127 -0.0239844 0.0 
0.958046 -0.018375 0.0 
0.985122 -0.0245837 0.0 
0.952035 -0.0127701 0.0 