<VTKFile type="UnstructuredGrid" version="0.1" byte_order="LittleEndian">
  <UnstructuredGrid>
    <Piece NumberOfPoints="16395" NumberOfCells="32334">
      <Points>
        <DataArray type = "Float64" NumberOfComponents="3" format="ascii">
1.11166 1.0123 0.0 
1.08322 1.00894 0.0 
1.08632 0.94995 0.0 
1.09117 1.01091 0.0 
1.08457 1.00837 0.0 
1.10194 1.00247 0.0 
1.09336 1.01187 0.0 
1.08762 0.994999 0.0 
1.10765 1.00565 0.0 
1.08284 1.0103 0.0 
1.09188 1.01272 0.0 
1.07928 1.01031 0.0 
1.08752 1.00849 0.0 
1.09589 1.00918 0.0 
1.09017 0.894419 0.0 
1.14203 1.00794 0.0 
1.09451 1.01284 0.0 
1.0885 1.0113 0.0 
1.11316 1.01175 0.0 
1.13216 1.0025 0.0 
1.12172 0.998475 0.0 
1.12736 1.01533 0.0 
1.1181 0.997389 0.0 
1.09437 1.01437 0.0 
1.10629 1.00247 0.0 
1.08694 0.981176 0.0 
1.11834 1.00106 0.0 
1.13559 0.998861 0.0 
1.13289 1.00009 0.0 
1.09453 1.00091 0.0 
1.11315 0.999514 0.0 
1.09112 1.01151 0.0 
1.10778 1.00496 0.0 
1.08648 1.002 0.0 
1.0895 1.00665 0.0 
1.09036 1.00778 0.0 
1.13254 1.01131 0.0 
1.08318 1.00825 0.0 
1.11476 1.01135 0.0 
1.08314 1.00947 0.0 
1.08703 1.01172 0.0 
1.12143 1.00045 0.0 
1.0844 1.00728 0.0 
1.11907 1.01427 0.0 
1.09124 1.00678 0.0 
1.11353 1.00118 0.0 
1.12517 1.00403 0.0 
1.13698 1.0041 0.0 
1.07978 1.00985 0.0 
1.08912 1.00998 0.0 
1.12836 1.00888 0.0 
1.11437 0.997487 0.0 
1.11585 0.997215 0.0 
1.08809 1.00729 0.0 
1.0849 1.00774 0.0 
1.103 1.00188 0.0 
1.12162 0.997835 0.0 
1.09606 0.995224 0.0 
1.13633 1.01499 0.0 
1.12668 0.999938 0.0 
1.11352 1.00698 0.0 
1.08938 1.01263 0.0 
1.09753 1.00165 0.0 
1.11621 0.998428 0.0 
1.10365 1.00152 0.0 
1.12266 0.997231 0.0 
1.0782 1.01126 0.0 
1.10633 1.00116 0.0 
1.13063 1.01431 0.0 
1.13881 1.01481 0.0 
1.08536 1.00653 0.0 
1.11367 0.9957 0.0 
1.12051 0.997311 0.0 
1.07839 1.00902 0.0 
1.10669 1.00195 0.0 
1.08895 1.00825 0.0 
1.08768 1.00791 0.0 
1.09491 1.00301 0.0 
1.08157 1.01274 0.0 
1.08414 1.00038 0.0 
1.08473 1.01055 0.0 
1.13383 1.01429 0.0 
1.11559 0.996273 0.0 
1.12329 1.00794 0.0 
1.12134 1.01481 0.0 
1.12526 1.01529 0.0 
1.12478 0.997486 0.0 
1.13472 0.999567 0.0 
1.13448 1.01357 0.0 
1.09906 1.00361 0.0 
1.08645 1.00758 0.0 
1.09362 1.00934 0.0 
1.10094 0.869208 0.0 
1.12112 1.01404 0.0 
1.09307 1.01237 0.0 
1.12496 1.00169 0.0 
1.10845 1.00435 0.0 
1.12714 1.00367 0.0 
1.07802 1.00802 0.0 
1.11642 0.995826 0.0 
1.13659 1.01422 0.0 
1.08083 1.01032 0.0 
1.08767 1.01345 0.0 
1.08099 1.00592 0.0 
1.12601 0.997833 0.0 
1.14031 1.00442 0.0 
1.09824 1.01333 0.0 
1.13918 1.00122 0.0 
1.08685 0.954022 0.0 
1.13096 0.997649 0.0 
1.0992 0.910365 0.0 
1.10471 1.00372 0.0 
1.13948 1.0019 0.0 
1.10756 1.00024 0.0 
1.1443 1.0084 0.0 
1.10008 0.899308 0.0 
1.14227 1.00551 0.0 
1.12212 0.995767 0.0 
1.13922 1.00048 0.0 
1.14057 1.00503 0.0 
1.08158 1.01179 0.0 
1.11788 0.995057 0.0 
1.14227 1.00492 0.0 
1.14278 1.00747 0.0 
1.14283 1.00675 0.0 
1.13899 1.00264 0.0 
1.14295 1.00614 0.0 
1.11275 1.01354 0.0 
1.12636 0.998623 0.0 
1.1407 1.00319 0.0 
1.14068 1.00385 0.0 
1.13631 1.00594 0.0 
1.09074 1.00829 0.0 
1.13881 1.00329 0.0 
1.08441 1.01178 0.0 
1.08938 0.974338 0.0 
1.07789 1.01024 0.0 
1.14403 1.00894 0.0 
1.11062 0.995504 0.0 
1.10738 1.00975 0.0 
1.1409 1.00596 0.0 
1.11027 1.00268 0.0 
1.10182 0.995783 0.0 
1.1032 0.995724 0.0 
1.13374 1.01511 0.0 
1.098 0.995659 0.0 
1.09714 0.995151 0.0 
1.0967 1.00313 0.0 
1.12344 0.998275 0.0 
1.13857 0.999936 0.0 
1.08305 1.01237 0.0 
1.11249 1.00427 0.0 
1.08812 0.975409 0.0 
1.10687 0.998695 0.0 
1.12943 0.99981 0.0 
1.09754 1.00673 0.0 
1.10636 0.999712 0.0 
1.1036 0.996716 0.0 
1.10481 0.996541 0.0 
1.10915 0.998997 0.0 
1.11089 0.996475 0.0 
1.0907 0.915861 0.0 
1.10555 0.998242 0.0 
1.1045 0.997528 0.0 
1.10278 1.00402 0.0 
1.11009 0.998357 0.0 
1.08763 0.996104 0.0 
1.08896 1.01058 0.0 
1.11446 1.00154 0.0 
1.11328 1.0006 0.0 
1.10307 0.998 0.0 
1.09796 0.998978 0.0 
1.10574 0.997004 0.0 
1.08686 1.01224 0.0 
1.08774 0.977938 0.0 
1.09638 0.996932 0.0 
1.08389 1.00204 0.0 
1.10736 0.999741 0.0 
1.10188 0.99772 0.0 
1.09306 1.00076 0.0 
1.09013 0.994698 0.0 
1.13193 1.01363 0.0 
1.11438 0.999567 0.0 
1.11741 0.994284 0.0 
1.09116 0.993601 0.0 
1.12142 0.996775 0.0 
1.10407 0.998843 0.0 
1.10639 1.00038 0.0 
1.0997 0.999579 0.0 
1.10995 0.997286 0.0 
1.10199 0.998762 0.0 
1.1026 0.997127 0.0 
1.09793 0.996815 0.0 
1.10817 0.998455 0.0 
1.13587 1.00535 0.0 
1.10094 0.997239 0.0 
1.09147 1.01392 0.0 
1.08188 1.00355 0.0 
1.08049 1.01129 0.0 
1.1008 1.00375 0.0 
1.09855 1.00324 0.0 
1.11369 1.00645 0.0 
1.0989 0.999034 0.0 
1.12447 1.01439 0.0 
1.10831 0.996783 0.0 
1.1257 1.01235 0.0 
1.0829 0.921492 0.0 
1.08108 1.00306 0.0 
1.0869 1.00299 0.0 
1.09905 1.00191 0.0 
1.0936 1.01 0.0 
1.09005 0.924589 0.0 
1.08099 1.00224 0.0 
1.14053 1.00948 0.0 
1.08685 1.01077 0.0 
1.10798 0.995711 0.0 
1.08243 1.00236 0.0 
1.11405 0.996601 0.0 
1.11289 1.01286 0.0 
1.13649 0.999125 0.0 
1.10069 1.0026 0.0 
1.0861 1.00815 0.0 
1.11167 1.00534 0.0 
1.08548 1.0088 0.0 
1.0955 1.00389 0.0 
1.08582 1.00299 0.0 
1.14095 1.00836 0.0 
1.08396 0.912387 0.0 
1.11064 1.01289 0.0 
1.10675 1.00453 0.0 
1.08909 0.985252 0.0 
1.13843 1.00625 0.0 
1.13552 1.00655 0.0 
1.08344 1.00301 0.0 
1.1154 1.01324 0.0 
1.08575 1.00497 0.0 
1.09158 0.995028 0.0 
1.08011 1.0087 0.0 
1.07872 1.0085 0.0 
1.13803 1.00154 0.0 
1.09062 1.00458 0.0 
1.09052 1.00232 0.0 
1.07946 1.0093 0.0 
1.10943 1.00944 0.0 
1.08916 0.976312 0.0 
1.09641 1.00965 0.0 
1.10255 1.00863 0.0 
1.10652 1.01037 0.0 
1.10544 1.0058 0.0 
1.087 0.998593 0.0 
1.12266 0.996505 0.0 
1.08703 1.00965 0.0 
1.12547 1.00779 0.0 
1.12371 1.01047 0.0 
1.14377 1.01113 0.0 
1.10656 1.01191 0.0 
1.12675 1.01024 0.0 
1.12364 1.00502 0.0 
1.09161 0.971201 0.0 
1.10008 1.0006 0.0 
1.12059 0.995977 0.0 
1.13684 1.01355 0.0 
1.08386 0.999432 0.0 
1.1196 1.01154 0.0 
1.117 1.01393 0.0 
1.08446 1.00463 0.0 
1.08718 1.00469 0.0 
1.08512 1.00931 0.0 
1.113 0.994053 0.0 
1.09064 0.905868 0.0 
1.08895 1.00433 0.0 
1.13752 1.00285 0.0 
1.09244 1.00794 0.0 
1.10282 1.01377 0.0 
1.1157 1.00042 0.0 
1.10208 1.00123 0.0 
1.10254 1.00954 0.0 
1.1036 1.00496 0.0 
1.07905 1.01072 0.0 
1.10887 1.01086 0.0 
1.0801 1.00394 0.0 
1.08732 0.941919 0.0 
1.12648 1.00806 0.0 
1.08656 1.0069 0.0 
1.08517 1.0011 0.0 
1.13059 1.01158 0.0 
1.0908 1.01323 0.0 
1.08113 1.00678 0.0 
1.10407 1.00801 0.0 
1.09164 1.00374 0.0 
1.13828 1.00479 0.0 
1.11847 0.996313 0.0 
1.108 1.00194 0.0 
1.11133 1.00134 0.0 
1.10255 1.0006 0.0 
1.09236 1.00869 0.0 
1.08944 0.932426 0.0 
1.12508 1.00839 0.0 
1.09424 1.00845 0.0 
1.0893 1.0018 0.0 
1.08271 1.00619 0.0 
1.11632 1.00445 0.0 
1.0821 1.01088 0.0 
1.09753 0.997796 0.0 
1.10246 1.01027 0.0 
1.09496 1.00809 0.0 
1.10429 1.00911 0.0 
1.10525 1.00967 0.0 
1.08549 0.996899 0.0 
1.10056 0.999793 0.0 
1.11433 0.993302 0.0 
1.08402 1.00656 0.0 
1.10026 0.997861 0.0 
1.12457 1.00094 0.0 
1.07898 1.00587 0.0 
1.12046 1.01265 0.0 
1.11705 1.00504 0.0 
1.11549 1.00636 0.0 
1.10638 1.00626 0.0 
1.08733 1.00907 0.0 
1.14111 1.0064 0.0 
1.09955 0.998487 0.0 
1.09363 1.00377 0.0 
1.08519 1.0112 0.0 
1.09454 1.01379 0.0 
1.09429 1.00455 0.0 
1.10365 1.01137 0.0 
1.12837 1.01307 0.0 
1.09135 1.0097 0.0 
1.08927 0.955405 0.0 
1.0896 1.00878 0.0 
1.09256 1.00449 0.0 
1.11244 1.0018 0.0 
1.09449 0.997162 0.0 
1.10259 1.01559 0.0 
1.11894 1.00693 0.0 
1.12491 0.998784 0.0 
1.10964 1.00513 0.0 
1.10013 1.01455 0.0 
1.0888 0.995346 0.0 
1.10041 1.0151 0.0 
1.11541 1.0081 0.0 
1.10091 1.00196 0.0 
1.10389 1.00344 0.0 
1.10976 1.00723 0.0 
1.0795 1.01221 0.0 
1.11421 1.01596 0.0 
1.09746 0.920463 0.0 
1.0799 1.00804 0.0 
1.13806 1.00079 0.0 
1.09253 0.997349 0.0 
1.12721 1.01392 0.0 
1.10662 1.0112 0.0 
1.12749 1.01186 0.0 
1.09103 0.967486 0.0 
1.10515 1.00056 0.0 
1.1042 1.00731 0.0 
1.11184 1.00684 0.0 
1.11143 1.00989 0.0 
1.14431 1.01174 0.0 
1.14288 1.01056 0.0 
1.08985 0.965502 0.0 
1.10502 1.00852 0.0 
1.08481 0.998822 0.0 
1.09804 1.01237 0.0 
1.12105 1.00231 0.0 
1.10459 1.00285 0.0 
1.1092 1.0123 0.0 
1.09007 0.968004 0.0 
1.1166 1.00092 0.0 
1.12771 1.00764 0.0 
1.13488 1.00125 0.0 
1.10703 0.997514 0.0 
1.0877 1.00615 0.0 
1.14182 1.00895 0.0 
1.12034 0.998372 0.0 
1.10118 0.998206 0.0 
1.08278 1.00697 0.0 
1.10263 1.00321 0.0 
1.09071 0.970254 0.0 
1.08794 1.00244 0.0 
1.1252 1.00669 0.0 
1.1235 0.997758 0.0 
1.09595 0.998703 0.0 
1.10219 1.01078 0.0 
1.09364 0.994787 0.0 
1.11809 1.00447 0.0 
1.12629 1.01092 0.0 
1.09541 1.01234 0.0 
1.11487 1.00898 0.0 
1.08968 0.971495 0.0 
1.13692 1.00099 0.0 
1.12845 0.998006 0.0 
1.11971 0.995048 0.0 
1.12269 1.00856 0.0 
1.09323 1.00288 0.0 
1.09646 1.01174 0.0 
1.08661 1.00087 0.0 
1.0918 1.00155 0.0 
1.12787 0.998797 0.0 
1.08911 0.962892 0.0 
1.09686 0.996116 0.0 
1.13377 1.00605 0.0 
1.13456 1.00229 0.0 
1.07814 1.00734 0.0 
1.10141 1.00318 0.0 
1.08687 1.01024 0.0 
1.1047 1.01297 0.0 
1.0949 0.995303 0.0 
1.08889 0.994466 0.0 
1.07964 1.00739 0.0 
1.11836 0.999251 0.0 
1.0985 0.998086 0.0 
1.09666 1.01109 0.0 
1.12236 1.012 0.0 
1.08863 0.992844 0.0 
1.11357 0.999089 0.0 
1.07934 1.00669 0.0 
1.09579 1.01045 0.0 
1.09022 0.966822 0.0 
1.11679 1.00599 0.0 
1.11759 0.996611 0.0 
1.11072 1.00886 0.0 
1.08506 0.928719 0.0 
1.08455 1.00573 0.0 
1.08301 1.00413 0.0 
1.08607 0.996193 0.0 
1.12216 1.00744 0.0 
1.14042 1.00692 0.0 
1.13006 1.01071 0.0 
1.12798 1.01134 0.0 
1.1094 1.0006 0.0 
1.09045 0.974151 0.0 
1.12198 0.999231 0.0 
1.09111 0.996591 0.0 
1.11133 1.0047 0.0 
1.09018 0.998805 0.0 
1.12621 1.00728 0.0 
1.09746 1.01452 0.0 
1.13641 1.0014 0.0 
1.12118 1.00393 0.0 
1.10424 0.999808 0.0 
1.13073 0.998324 0.0 
1.10104 0.996182 0.0 
1.10635 1.00687 0.0 
1.11714 1.01129 0.0 
1.1316 0.998889 0.0 
1.08927 0.959104 0.0 
1.0882 1.00659 0.0 
1.08097 1.00928 0.0 
1.12699 0.997657 0.0 
1.11336 1.00783 0.0 
1.11025 1.00094 0.0 
1.11136 1.00303 0.0 
1.12766 1.00844 0.0 
1.12434 1.00694 0.0 
1.10516 1.00234 0.0 
1.0797 1.00314 0.0 
1.13931 1.00888 0.0 
1.10683 1.00778 0.0 
1.09086 0.9722 0.0 
1.09907 1.01191 0.0 
1.1066 1.00521 0.0 
[...]
<PointData>
  <DataArray type = "Float64" Name="Vitesse" NumberOfComponents="3" format="ascii">
0.378955 -0.0180111 0.0 
0.0615238 0.0725803 0.0 
1.00788 -0.20007 0.0 
0.18307 0.0656119 0.0 
0.0612725 0.0813494 0.0 
0.0462158 0.0810805 0.0 
0.233073 0.0555529 0.0 
-0.0960693 0.134915 0.0 
0.143127 0.0356587 0.0 
0.0920886 0.0596733 0.0 
0.251444 0.0494194 0.0 
0.064964 0.0465904 0.0 
0.0892472 0.086105 0.0 
0.174285 0.0725821 0.0 
1.00762 -0.0862011 0.0 
0.171003 -0.186346 0.0 
0.278687 0.0456144 0.0 
0.171063 0.0619399 0.0 
0.364355 -0.0243086 0.0 
0.0103194 -0.170259 0.0 
-0.0572952 -0.0931728 0.0 
0.569559 -0.1131 0.0 
-0.0714046 -0.0575304 0.0 
0.345576 0.0330262 0.0 
0.0564791 0.0525954 0.0 
0.127565 -0.0948988 0.0 
0.0189716 -0.0516418 0.0 
-0.108872 -0.214822 0.0 
-0.0658943 -0.18894 0.0 
-0.0102842 0.122453 0.0 
-0.0140301 -0.00344495 0.0 
0.201619 0.0603201 0.0 
0.124608 0.0366143 0.0 
-0.0238635 0.129141 0.0 
0.0692082 0.102038 0.0 
0.0984862 0.0926603 0.0 
0.374769 -0.136524 0.0 
0.0471176 0.0780701 0.0 
0.355341 -0.0325899 0.0 
0.0729717 0.0676813 0.0 
0.17183 0.0566599 0.0 
-0.00575848 -0.0838684 0.0 
0.0395003 0.0899964 0.0 
0.50013 -0.0697708 0.0 
0.0848938 0.0996651 0.0 
0.0285444 -0.00576182 0.0 
0.094549 -0.107231 0.0 
0.0380948 -0.191121 0.0 
0.0559847 0.0518193 0.0 
0.138628 0.0740199 0.0 
0.273654 -0.118869 0.0 
-0.0622551 -0.018059 0.0 
-0.0705008 -0.0338395 0.0 
0.07001 0.0967642 0.0 
0.0517728 0.0876283 0.0 
0.0354 0.0761116 0.0 
-0.0714271 -0.094111 0.0 
-0.10815 0.125303 0.0 
0.548139 -0.142234 0.0 
-0.0394915 -0.136915 0.0 
0.1975 -0.00997515 0.0 
0.226008 0.0503055 0.0 
0.0145092 0.107199 0.0 
-0.0441757 -0.035315 0.0 
0.0282343 0.0727388 0.0 
-0.0874414 -0.106962 0.0 
0.0872025 0.036269 0.0 
0.0245237 0.0544612 0.0 
0.520588 -0.125732 0.0 
0.533883 -0.147552 0.0 
0.0347317 0.0985618 0.0 
-0.0969836 -0.0130557 0.0 
-0.0793164 -0.0838077 0.0 
0.0274777 0.0510827 0.0 
0.0444735 0.0506199 0.0 
0.0966117 0.0891576 0.0 
0.0786547 0.091335 0.0 
0.0320497 0.112948 0.0 
0.167051 0.0370955 0.0 
-0.0493519 0.125341 0.0 
0.115032 0.0627929 0.0 
0.517144 -0.137002 0.0 
-0.0889807 -0.0327863 0.0 
0.24098 -0.085442 0.0 
0.53341 -0.0838127 0.0 
0.56519 -0.103896 0.0 
-0.0896428 -0.128 0.0 
-0.0888495 -0.205145 0.0 
0.480693 -0.139946 0.0 
0.0623744 0.0926945 0.0 
0.0618518 0.0924643 0.0 
0.160898 0.0762868 0.0 
1.01212 -0.063014 0.0 
0.495707 -0.0803901 0.0 
0.24814 0.0515355 0.0 
0.0182298 -0.113532 0.0 
0.10972 0.0332896 0.0 
0.0749014 -0.125008 0.0 
0.00696534 0.0553164 0.0 
-0.0986933 -0.0426462 0.0 
0.509144 -0.144312 0.0 
0.0764607 0.0526351 0.0 
0.246372 0.0422592 0.0 
-0.00485053 0.0846381 0.0 
-0.0870463 -0.139211 0.0 
0.0271179 -0.205754 0.0 
0.32976 0.0344161 0.0 
-0.0731904 -0.223111 0.0 
1.0112 -0.216911 0.0 
-0.110757 -0.185431 0.0 
1.02274 -0.102772 0.0 
0.0842352 0.0603947 0.0 
-0.0554882 -0.219927 0.0 
0.00384724 0.0459722 0.0 
0.17724 -0.189211 0.0 
1.01935 -0.0889022 0.0 
0.056771 -0.205481 0.0 
-0.112604 -0.105503 0.0 
-0.0931355 -0.228131 0.0 
0.0497513 -0.202245 0.0 
0.12913 0.0441079 0.0 
-0.114388 -0.0601902 0.0 
0.0323471 -0.210102 0.0 
0.14234 -0.191954 0.0 
0.108307 -0.197715 0.0 
-0.028022 -0.212246 0.0 
0.0794318 -0.202904 0.0 
0.43866 -0.0309266 0.0 
-0.0711128 -0.139407 0.0 
-0.0219563 -0.2167 0.0 
0.00188933 -0.211515 0.0 
0.117375 -0.175888 0.0 
0.112337 0.0882855 0.0 
-0.00426038 -0.206685 0.0 
0.151599 0.051694 0.0 
0.940206 -0.325164 0.0 
0.0537071 0.0413901 0.0 
0.207048 -0.184672 0.0 
-0.0978762 0.0184179 0.0 
0.263132 0.0203732 0.0 
0.0871339 -0.196563 0.0 
0.0676147 0.0219583 0.0 
-0.0951359 0.093188 0.0 
-0.0951649 0.0834689 0.0 
0.55784 -0.135546 0.0 
-0.100271 0.11624 0.0 
-0.109082 0.120648 0.0 
0.0423193 0.105393 0.0 
-0.0678057 -0.111629 0.0 
-0.102005 -0.227567 0.0 
0.162746 0.0436106 0.0 
0.114137 0.00236458 0.0 
0.898991 -0.346942 0.0 
-0.0323485 0.0526631 0.0 
-0.0556552 -0.162278 0.0 
0.12576 0.0839071 0.0 
-0.00973869 0.0558447 0.0 
-0.0760999 0.0797084 0.0 
-0.0786197 0.0705389 0.0 
-0.0247649 0.0330717 0.0 
-0.0796078 0.0162344 0.0 
1.01207 -0.114236 0.0 
-0.0431403 0.0635831 0.0 
-0.0590379 0.0723413 0.0 
0.0856395 0.0712979 0.0 
-0.0393937 0.0246749 0.0 
-0.0881718 0.138403 0.0 
0.153699 0.0685296 0.0 
0.0376555 -0.0141158 0.0 
0.0134055 -0.00382059 0.0 
-0.0506676 0.0823988 0.0 
-0.0389131 0.112034 0.0 
-0.0689107 0.0628616 0.0 
0.189207 0.0519467 0.0 
0.722799 -0.341758 0.0 
-0.0794744 0.123026 0.0 
-0.0335335 0.119763 0.0 
-0.00817298 0.0479542 0.0 
-0.0577297 0.0907723 0.0 
-0.017785 0.128055 0.0 
-0.107157 0.137505 0.0 
0.486817 -0.1311 0.0 
-0.0139341 -0.0152069 0.0 
-0.125514 -0.0562136 0.0 
-0.120994 0.133702 0.0 
-0.0929265 -0.0950505 0.0 
-0.0316125 0.0742653 0.0 
0.0059173 0.0550614 0.0 
-0.0230893 0.101378 0.0 
-0.0626757 0.0256535 0.0 
-0.0360285 0.0886969 0.0 
-0.0688392 0.0865647 0.0 
-0.0798979 0.115608 0.0 
-0.0371319 0.0417039 0.0 
0.0953462 -0.17719 0.0 
-0.0684358 0.0974839 0.0 
0.299967 0.0394035 0.0 
-0.0259384 0.102278 0.0 
0.103582 0.0442351 0.0 
0.0722911 0.0832187 0.0 
0.0520457 0.0965759 0.0 
0.181542 -0.0101009 0.0 
-0.0357729 0.106912 0.0 
0.520267 -0.0988347 0.0 
-0.0727447 0.0406652 0.0 
0.426167 -0.102584 0.0 
0.999465 -0.124733 0.0 
-0.0332788 0.0983659 0.0 
-0.00813078 0.125023 0.0 
0.0249566 0.0987043 0.0 
0.17804 0.070674 0.0 
1.01323 -0.129821 0.0 
-0.0399161 0.0997236 0.0 
0.256889 -0.171832 0.0 
0.140271 0.0646794 0.0 
-0.09353 0.0436927 0.0 
-0.035306 0.110192 0.0 
-0.0802444 -0.0159028 0.0 
0.409133 -0.0282297 0.0 
-0.108073 -0.219412 0.0 
0.0454019 0.0878139 0.0 
0.069807 0.0869432 0.0 
0.143993 0.0073944 0.0 
0.0778081 0.0801461 0.0 
0.0527135 0.10667 0.0 
-0.0137027 0.122901 0.0 
0.198696 -0.180105 0.0 
1.00105 -0.109569 0.0 
0.39827 -0.0153694 0.0 
0.110559 0.0447481 0.0 
-0.0656856 0.0198414 0.0 
0.117427 -0.184298 0.0 
0.14799 -0.168422 0.0 
-0.0248113 0.11366 0.0 
0.437874 -0.0447479 0.0 
0.013579 0.110944 0.0 
-0.107202 0.137479 0.0 
0.032496 0.0614837 0.0 
0.0193935 0.0559406 0.0 
-0.0560087 -0.214457 0.0 
0.0390484 0.11553 0.0 
-0.000777407 0.127928 0.0 
0.04056 0.0542956 0.0 
0.262839 0.00990239 0.0 
0.843913 -0.316304 0.0 
0.190638 0.0680068 0.0 
0.203031 0.0518976 0.0 
0.27892 0.0217475 0.0 
0.140067 0.049286 0.0 
-0.0638799 0.138715 0.0 
-0.101414 -0.109233 0.0 
0.11156 0.0751732 0.0 
0.233529 -0.101203 0.0 
0.342845 -0.0891175 0.0 
0.323097 -0.169844 0.0 
0.333787 0.0123115 0.0 
0.333498 -0.107717 0.0 
0.132924 -0.0918871 0.0 
1.013 -0.293784 0.0 
-0.000543183 0.0968598 0.0 
-0.105334 -0.0882081 0.0 
0.474662 -0.146299 0.0 
-0.0577322 0.124676 0.0 
0.379728 -0.0642197 0.0 
0.476269 -0.056913 0.0 
0.000305185 0.109436 0.0 
0.0187313 0.11543 0.0 
0.0862282 0.074708 0.0 
-0.12378 -0.00746816 0.0 
1.00983 -0.0996144 0.0 
0.0244437 0.118548 0.0 
-0.0107443 -0.202572 0.0 
0.118185 0.0892519 0.0 
0.384314 0.0160938 0.0 
0.00594214 -0.0270613 0.0 
0.0181544 0.0833946 0.0 
0.228968 0.0465854 0.0 
0.111763 0.0633182 0.0 
0.0753887 0.0429223 0.0 
0.309031 0.00611129 0.0 
-0.0292252 0.0881223 0.0 
1.00991 -0.172399 0.0 
0.243163 -0.107748 0.0 
0.0503427 0.0981963 0.0 
-0.0397256 0.128799 0.0 
0.390735 -0.127461 0.0 
0.262833 0.0454211 0.0 
0.00746865 0.08 0.0 
0.193669 0.0474679 0.0 
0.0298982 0.118693 0.0 
0.0565169 -0.193263 0.0 
-0.093832 -0.0641694 0.0 
0.0460568 0.0407834 0.0 
0.0330553 0.0138292 0.0 
0.00493048 0.0817945 0.0 
0.134825 0.0834432 0.0 
1.01354 -0.146768 0.0 
0.257353 -0.0978453 0.0 
0.143804 0.0818876 0.0 
-0.0146595 0.131559 0.0 
0.00985734 0.0918745 0.0 
0.12163 -0.0295905 0.0 
0.102492 0.0527521 0.0 
-0.0623398 0.11633 0.0 
0.250613 0.0424102 0.0 
0.140486 0.0828998 0.0 
0.226568 0.0405265 0.0 
0.24891 0.0325517 0.0 
-0.0776269 0.132025 0.0 
-0.0167661 0.0958614 0.0 
-0.135267 -0.022685 0.0 
0.0249908 0.0942158 0.0 
-0.0571256 0.100986 0.0 
-0.00270437 -0.112816 0.0 
-0.0161605 0.0721918 0.0 
0.429913 -0.0726486 0.0 
0.140298 -0.03583 0.0 
0.181398 -0.0239086 0.0 
0.155608 0.041812 0.0 
0.100394 0.0808183 0.0 
0.105114 -0.19394 0.0 
-0.0457159 0.104257 0.0 
0.0410508 0.113466 0.0 
0.138542 0.0584821 0.0 
0.319842 0.0376443 0.0 
0.0599579 0.107339 0.0 
0.294943 0.0299745 0.0 
0.46112 -0.116375 0.0 
0.150996 0.0760378 0.0 
1.02313 -0.221632 0.0 
0.113699 0.0846934 0.0 
0.049006 0.112352 0.0 
0.04513 0.00413491 0.0 
-0.0773997 0.130643 0.0 
0.472628 0.00342002 0.0 
0.203655 -0.0519612 0.0 
-0.0613947 -0.124573 0.0 
0.133942 0.0230291 0.0 
0.400423 0.0193811 0.0 
-0.0973312 0.138553 0.0 
0.430806 0.0142663 0.0 
0.238815 -0.0263948 0.0 
0.0315211 0.0884808 0.0 
0.0748897 0.0664416 0.0 
0.195036 0.016321 0.0 
0.130457 0.0345729 0.0 
0.564268 -0.0511457 0.0 
1.02514 -0.119496 0.0 
0.0188295 0.0649764 0.0 
-0.0776992 -0.219502 0.0 
-0.0760092 0.136673 0.0 
0.500503 -0.111119 0.0 
0.307956 0.0164458 0.0 
0.405113 -0.111666 0.0 
1.04053 -0.283969 0.0 
0.00846764 0.064074 0.0 
0.175184 0.050223 0.0 
0.189301 0.0026391 0.0 
0.287245 -0.00489782 0.0 
0.35301 -0.167003 0.0 
0.298155 -0.171569 0.0 
1.0364 -0.277014 0.0 
0.212942 0.0398757 0.0 
-0.062494 0.130291 0.0 
0.289825 0.0427127 0.0 
0.0496977 -0.0749745 0.0 
0.0623497 0.0634036 0.0 
0.365142 -0.00414773 0.0 
1.03344 -0.291737 0.0 
0.0182782 -0.0350396 0.0 
0.223893 -0.117064 0.0 
-0.045087 -0.196417 0.0 
-0.0578178 0.0518875 0.0 
0.0464016 0.105424 0.0 
0.222585 -0.178806 0.0 
-0.0555793 -0.0788957 0.0 
-0.0487895 0.0946877 0.0 
0.0220546 0.0864196 0.0 
0.0656854 0.0747408 0.0 
1.02215 -0.299368 0.0 
-0.0110353 0.128813 0.0 
0.191147 -0.100931 0.0 
-0.0795243 -0.114019 0.0 
-0.0481101 0.122436 0.0 
0.265181 0.0401689 0.0 
-0.113375 0.133128 0.0 
0.121849 -0.0447504 0.0 
0.363441 -0.105199 0.0 
0.267232 0.0483903 0.0 
0.267669 -0.0248952 0.0 
1.00303 -0.313436 0.0 
-0.0652447 -0.211588 0.0 
-0.0932605 -0.161726 0.0 
-0.118233 -0.0807926 0.0 
0.264998 -0.0811377 0.0 
0.0218925 0.118977 0.0 
0.25436 0.051455 0.0 
-0.0380483 0.133141 0.0 
-0.00837036 0.12866 0.0 
-0.0733495 -0.152933 0.0 
1.03048 -0.262151 0.0 
-0.0931962 0.121535 0.0 
0.136013 -0.161297 0.0 
-0.0105227 -0.188118 0.0 
-0.00275906 0.0595948 0.0 
0.0609744 0.0819123 0.0 
0.125363 0.0695808 0.0 
0.363607 0.0141837 0.0 
-0.106762 0.129676 0.0 
-0.104511 0.135377 0.0 
0.00676613 0.0678293 0.0 
-0.0289208 -0.0558939 0.0 
-0.0552331 0.110713 0.0 
0.234739 0.056113 0.0 
0.40583 -0.0826799 0.0 
-0.112129 0.126416 0.0 
-0.024636 -0.00789756 0.0 
-0.0048656 0.0702465 0.0 
0.208442 0.0631092 0.0 
1.03761 -0.283929 0.0 
0.17083 -0.0340183 0.0 
-0.0862526 -0.0538433 0.0 
0.249385 0.00393923 0.0 
1.00346 -0.139065 0.0 
0.0163261 0.102289 0.0 
-0.014329 0.106083 0.0 
-0.0831769 0.132794 0.0 
0.222659 -0.0770579 0.0 
0.133946 -0.187875 0.0 
0.351543 -0.125749 0.0 
0.381331 -0.114335 0.0 
0.0137353 0.0305949 0.0 
0.942502 -0.305353 0.0 
-0.039809 -0.093317 0.0 
-0.0871852 0.139818 0.0 
0.125059 0.0109828 0.0 
-0.0571532 0.139649 0.0 
0.212495 -0.107159 0.0 
0.377633 0.0268303 0.0 
-0.0500602 -0.205712 0.0 
0.100771 -0.0726585 0.0 
-0.010025 0.0717432 0.0 
-0.0966131 -0.180482 0.0 
-0.088438 0.0979523 0.0 
0.172362 0.0396164 0.0 
0.362027 -0.0477546 0.0 
-0.0885017 -0.18503 0.0 
1.02704 -0.239897 0.0 
0.0578932 0.102413 0.0 
0.050955 0.0611923 0.0 
-0.0942908 -0.149282 0.0 
0.224698 -0.0108959 0.0 
0.0225286 0.0233108 0.0 
0.078137 0.0128346 0.0 
0.256726 -0.11519 0.0 
0.20212 -0.0939885 0.0 
0.0510307 0.0607291 0.0 
-0.0362995 0.0870548 0.0 
0.233644 -0.171284 0.0 
0.200074 0.033106 0.0 
0.99527 -0.303292 0.0 
0.281173 0.0432857 0.0 
0.128047 0.0438209 0.0 
0.0709377 0.0435344 0.0 
0.25938 -0.0112208 0.0 
0.211621 0.0558034 0.0 
1.0307 -0.195613 0.0 
-0.0739458 -0.183987 0.0 
0.37276 -0.0843056 0.0 
1.05154 -0.263984 0.0 
0.079695 0.0479695 0.0 
0.428559 -0.158492 0.0 
0.281171 0.0298884 0.0 
-0.0385584 0.136384 0.0 
0.107863 0.0189475 0.0 
0.166281 -0.0775353 0.0 
0.0590383 0.0375081 0.0 
0.157409 0.0779312 0.0 
0.171681 -0.180393 0.0 
0.216849 0.0469207 0.0 
-0.0330889 0.0819809 0.0 
0.313179 -0.0941043 0.0 
-0.0892324 0.00266896 0.0 
1.02823 -0.297136 0.0 
0.32429 0.0240526 0.0 
0.0758065 -0.0158243 0.0 
-0.0870121 0.140515 0.0 
-0.0119698 -0.154554 0.0 
0.14945 -0.0104414 0.0 
1.01166 -0.184726 0.0 
-0.054994 -0.134079 0.0 
-0.00309993 -0.0661276 0.0 
-0.0355168 0.0968723 0.0 
-0.0300475 -0.0727625 0.0 
0.351296 0.0238647 0.0 
0.0642364 0.0343003 0.0 
0.178807 -0.171224 0.0 
-0.00814881 -0.0275159 0.0 
0.0143283 -0.192931 0.0 
1.03713 -0.287554 0.0 
0.0157288 0.044265 0.0 
0.108748 0.0374117 0.0 
-0.0294724 0.135242 0.0 
0.224158 -0.0508669 0.0 
1.02198 -0.29301 0.0 
0.584409 -0.140852 0.0 
-0.0894968 0.0637836 0.0 
0.422731 -0.117021 0.0 
0.468463 -0.0315753 0.0 
0.182241 -0.088119 0.0 
0.053405 0.107484 0.0 
0.0299031 0.0356183 0.0 
0.131507 -0.00383801 0.0 
-0.0384176 -0.14967 0.0 
0.138382 -0.0649315 0.0 
-0.0725089 -0.000555642 0.0 
0.286146 0.0436355 0.0 
0.0958594 0.0425625 0.0 
0.578265 -0.127497 0.0 
0.467333 -0.083 0.0 
0.538366 -0.116021 0.0 
0.0288897 0.102708 0.0 
0.0546853 0.109732 0.0 
0.0583526 0.0446779 0.0 
0.0274435 -0.132824 0.0 
0.455993 -0.065075 0.0 
-0.0531183 0.0374156 0.0 
-0.00833734 -0.142833 0.0 
0.0351793 -0.151404 0.0 
0.055361 -0.154556 0.0 
-0.137824 -0.0631024 0.0 
0.883138 -0.312028 0.0 
0.336666 0.0239917 0.0 
0.0487737 -0.00728469 0.0 
0.404575 -0.147401 0.0 
0.0113884 0.123874 0.0 
1.04507 -0.273271 0.0 
-0.0509844 0.135287 0.0 
0.262983 -0.132021 0.0 
0.0442519 0.0693354 0.0 
0.391339 0.00963898 0.0 
-0.105705 -0.0285878 0.0 
0.130358 0.0696702 0.0 
-0.0727087 0.13681 0.0 
0.0796209 0.102293 0.0 
0.1906 -0.0369603 0.0 
-0.0215804 0.119633 0.0 
-0.0978217 -0.122901 0.0 
0.10639 0.0901342 0.0 
0.347554 -0.165981 0.0 
-0.0445025 0.110568 0.0 
0.0260233 -0.0662425 0.0 
0.373781 0.00241178 0.0 
0.0325694 0.0931518 0.0 
1.0203 -0.189929 0.0 
0.300291 0.0411412 0.0 
-0.00586881 0.105604 0.0 
0.198756 0.0425875 0.0 
0.0733821 0.0605665 0.0 
4.65822e-05 -0.0105296 0.0 
1.004 -0.306223 0.0 
-0.136487 -0.0400177 0.0 
0.0291246 0.00468728 0.0 
0.1203 0.0894512 0.0 
0.0836753 -0.0617366 0.0 
-0.0759312 0.0939099 0.0 
0.448469 -0.152233 0.0 
-0.0857817 0.0305229 0.0 
-0.108514 -0.12623 0.0 
-0.0957933 0.137274 0.0 
0.00453604 0.0746706 0.0 
-0.00636956 0.00633195 0.0 
-0.0854317 -0.194312 0.0 
-0.0260038 0.0732589 0.0 
0.0812367 0.0978961 0.0 
-0.05935 0.140405 0.0 
0.117907 0.0785266 0.0 
0.153811 0.0211284 0.0 
0.0107708 -0.181928 0.0 
0.0794167 -0.0456512 0.0 
0.118819 -0.0148228 0.0 
0.191049 0.0667454 0.0 
-0.10479 -0.190141 0.0 
0.0240495 0.109701 0.0 
-0.0192393 -0.221155 0.0 
0.0136832 -0.129812 0.0 
0.403284 -0.0634419 0.0 
-0.0223017 -0.093136 0.0 
0.39321 -0.100565 0.0 
0.240038 -0.164013 0.0 
0.336857 -0.0357064 0.0 
0.0348747 0.0823134 0.0 
0.146952 -0.077298 0.0 
1.01994 -0.175257 0.0 
0.294997 -0.13651 0.0 
0.00342889 -0.217905 0.0 
0.17579 0.0033213 0.0 
-0.0506439 0.11862 0.0 
0.341572 -0.00315791 0.0 
0.306819 -0.109823 0.0 
-0.09409 0.140249 0.0 
-0.0502633 -0.180607 0.0 
0.207799 -0.0396819 0.0 
-0.0959438 -0.192875 0.0 
-0.0503394 0.110186 0.0 
0.423503 -0.0154332 0.0 
0.078717 0.0772272 0.0 
0.00228105 0.11498 0.0 
-0.102426 -0.156193 0.0 
0.0321055 0.0452386 0.0 
-0.0019945 0.0893975 0.0 
0.093631 0.0970834 0.0 
0.427549 -0.126503 0.0 
0.156432 -0.138947 0.0 
0.072619 0.0889381 0.0 
0.961025 -0.318326 0.0 
-0.0587312 0.127717 0.0 
-0.084094 -0.151602 0.0 
0.0769636 0.102148 0.0 
0.257621 0.0349356 0.0 
-0.0190274 -0.127678 0.0 
0.0425089 -0.095213 0.0 
0.00791312 -0.0584011 0.0 
-0.0222638 0.113294 0.0 
0.124413 0.0505611 0.0 
0.165824 0.0709341 0.0 
1.00032 -0.152995 0.0 
0.286199 -0.0216356 0.0 
0.407726 -0.00169118 0.0 
0.244701 -0.0452445 0.0 
0.574407 -0.0248484 0.0 
-0.0178083 0.0906739 0.0 
-0.0958442 0.132731 0.0 
0.28889 -0.0770812 0.0 
0.00153845 0.123788 0.0 
0.97909 -0.312457 0.0 
0.0326633 0.0826823 0.0 
0.0986293 0.0962434 0.0 
0.167665 0.0740678 0.0 
0.238289 -0.0664786 0.0 
-0.057474 -0.00329358 0.0 
0.0849288 0.0938796 0.0 
0.409704 -0.137958 0.0 
1.0051 -0.288369 0.0 
-0.0021603 0.0985879 0.0 
-0.0896001 0.109662 0.0 
0.600928 -0.136338 0.0 
-0.054441 0.131359 0.0 
0.156952 0.0509004 0.0 
0.134676 0.0842984 0.0 
-0.10528 -0.177229 0.0 
0.415015 -0.0526549 0.0 
0.0853552 0.0361241 0.0 
0.454788 -0.0174677 0.0 
0.062258 0.00983841 0.0 
0.241359 0.0161732 0.0 
-0.0674577 0.10863 0.0 
0.0635368 -0.0600791 0.0 
0.0369269 0.111107 0.0 
0.356823 0.0296334 0.0 
0.29045 -0.164934 0.0 
0.208615 -0.0642894 0.0 
0.171464 -0.150329 0.0 
0.067808 0.105035 0.0 
0.102656 -0.0376853 0.0 
0.233255 -0.00134554 0.0 
0.128861 0.057789 0.0 
0.125322 0.0792841 0.0 
0.0544248 -0.044147 0.0 
0.0903802 0.021993 0.0 
-0.079322 -0.0445961 0.0 
0.0170411 0.0955628 0.0 
0.121206 0.0518704 0.0 
-0.0232535 -0.141053 0.0 
0.261957 -0.0642486 0.0 
-0.0921134 0.127684 0.0 
-0.0898576 0.133622 0.0 
0.216109 0.0604289 0.0 
0.0345864 -0.0412427 0.0 
-0.0764118 -0.196548 0.0 
0.311528 0.0390588 0.0 
-0.0568309 -0.174923 0.0 
0.0205701 0.0699672 0.0 
0.0747012 0.099824 0.0 
0.318632 -0.147253 0.0 
-0.0700277 0.139516 0.0 
-0.0766449 0.141405 0.0 
0.980593 -0.303751 0.0 
0.0156005 0.0897989 0.0 
0.0119915 0.117656 0.0 
0.0940424 0.0979384 0.0 
0.0912604 -0.0151814 0.0 
0.19761 0.0586246 0.0 
-0.0590211 -0.0374539 0.0 
0.442463 -0.14421 0.0 
0.0714119 -0.07853 0.0 
-0.0739508 0.104217 0.0 
0.00147321 0.0362201 0.0 
0.0590237 0.109295 0.0 
0.115136 -0.149325 0.0 
0.0686371 -0.111206 0.0 
-0.0766712 -0.126987 0.0 
0.0322192 0.0724169 0.0 
0.0581694 0.0866373 0.0 
-0.0920946 -0.220911 0.0 
0.0680081 0.0976573 0.0 
0.163989 -0.118286 0.0 
-0.142591 -0.0387818 0.0 
1.04414 -0.264569 0.0 
0.346321 -0.0620937 0.0 
0.0310869 -0.0273507 0.0 
0.041724 0.112926 0.0 
0.18456 -0.0710643 0.0 
0.228293 -0.160494 0.0 
0.554796 -0.0287448 0.0 
0.326747 -0.13923 0.0 
0.0334782 0.106008 0.0 
0.0933558 0.0921321 0.0 
0.0721523 0.0571164 0.0 
0.111246 0.0909889 0.0 
-0.0331817 -0.179084 0.0 
0.395132 -0.0342948 0.0 
0.259271 -0.0339342 0.0 
0.329876 -0.0136708 0.0 
0.120361 0.0246999 0.0 
0.535098 -0.0346104 0.0 
0.176236 0.0600453 0.0 
0.156382 -0.175878 0.0 
0.156531 -0.0915083 0.0 
-0.0979353 -0.203093 0.0 
0.347853 -0.142361 0.0 
0.0197268 0.0760608 0.0 
0.0681025 0.106002 0.0 
0.159271 0.0755749 0.0 
0.113274 0.0915581 0.0 
-0.014311 0.0822198 0.0 
0.185621 -0.159509 0.0 
0.0469647 -0.0287394 0.0 
0.162073 -0.00266003 0.0 
1.02048 -0.304247 0.0 
0.285066 0.00956623 0.0 
0.213662 -0.13287 0.0 
-0.0386753 0.117002 0.0 
0.474869 -0.0453088 0.0 
-0.0161412 -0.0597486 0.0 
0.082887 -0.16103 0.0 
-0.0625372 -0.0711395 0.0 
-0.0330048 -0.107361 0.0 
0.097362 0.0949862 0.0 
0.029094 -0.17902 0.0 
0.452254 -0.133407 0.0 
0.461683 -0.0966216 0.0 
0.00114943 -0.0450309 0.0 
0.504034 -0.0334076 0.0 
0.316063 -0.13054 0.0 
0.125476 -0.0762686 0.0 
0.0307517 -0.0811315 0.0 
0.0659572 -0.0301191 0.0 
0.998992 -0.169052 0.0 
0.13972 -0.128984 0.0 
0.039801 -0.0598698 0.0 
0.0046006 0.122807 0.0 
-0.057808 -0.194089 0.0 
0.28306 -0.0374885 0.0 
0.235646 0.0543989 0.0 
0.0626546 -0.0984105 0.0 
0.272743 -0.0520724 0.0 
0.0856145 -0.0296705 0.0 
-0.0424332 -0.0757586 0.0 
0.0269577 -0.144235 0.0 
0.188304 -0.111179 0.0 
0.18351 -0.135576 0.0 
0.160321 -0.0628616 0.0 
0.223979 0.0266667 0.0 
-0.0793668 -0.174845 0.0 
-0.0295907 0.134501 0.0 
0.0179962 0.12238 0.0 
0.0654595 0.0543382 0.0 
-0.0662139 0.0141988 0.0 
0.00801045 -0.145314 0.0 
0.110486 -0.134329 0.0 
0.064762 0.107123 0.0 
0.512643 -0.0597124 0.0 
0.143459 0.0599607 0.0 
-0.128482 -0.0710479 0.0 
0.210498 -0.00184939 0.0 
0.319895 -0.119761 0.0 
0.0466879 0.0147136 0.0 
0.511549 -0.0105793 0.0 
0.216813 -0.0246617 0.0 
0.0995723 0.0494761 0.0 
-0.0424137 0.120005 0.0 
0.291084 -0.12428 0.0 
0.194574 -0.123998 0.0 
0.53956 -0.0729944 0.0 
0.309389 -0.166293 0.0 
0.910867 -0.329157 0.0 
0.139429 -0.110473 0.0 
0.282556 -0.102711 0.0 
0.562403 -0.0652644 0.0 
0.515271 -0.0475016 0.0 
-0.0217795 0.023274 0.0 
0.383084 -0.0454399 0.0 
0.174624 0.0171036 0.0 
0.10433 -0.121002 0.0 
0.101965 -0.0537156 0.0 
0.0793842 0.102729 0.0 