<VTKFile type="UnstructuredGrid" version="0.1" byte_order="LittleEndian">
  <UnstructuredGrid>
    <Piece NumberOfPoints="16293" NumberOfCells="32140">
      <Points>
        <DataArray type = "Float64" NumberOfComponents="3" format="ascii">
3.1253 1.04265 0.0 
2.92367 1.03455 0.0 
2.92777 1.03992 0.0 
3.08715 1.03647 0.0 
3.27559 1.03937 0.0 
3.5 1.043 0.0 
3.31807 1.04506 0.0 
2.28345 1.02745 0.0 
2.51183 1.03359 0.0 
2.7339 1.03573 0.0 
2.37151 1.04921 0.0 
2.2361 1.02324 0.0 
2.33496 1.0556 0.0 
2.95696 1.05199 0.0 
2.46151 1.02858 0.0 
2.53241 1.04518 0.0 
2.2051 1.03916 0.0 
2.63319 1.06302 0.0 
2.0234 1.03301 0.0 
2.94473 1.05996 0.0 
3.5 1.07576 0.0 
3.5 1.06644 0.0 
3.5 1.10086 0.0 
2.54326 1.03901 0.0 
2.07699 1.02269 0.0 
1.76872 1.06286 0.0 
2.03596 1.04172 0.0 
2.03822 1.01929 0.0 
2.03772 1.03712 0.0 
2.35778 1.03652 0.0 
2.94272 1.07097 0.0 
2.18259 1.03469 0.0 
2.0418 1.05641 0.0 
1.81353 1.05175 0.0 
2.10064 1.07378 0.0 
3.24078 1.06428 0.0 
2.76807 1.0477 0.0 
2.1141 1.02653 0.0 
2.53279 1.07283 0.0 
2.38029 1.04078 0.0 
2.26356 1.04397 0.0 
3.01475 1.08737 0.0 
2.70414 1.08953 0.0 
2.32439 1.03189 0.0 
2.05587 1.04774 0.0 
2.65185 1.05328 0.0 
3.23351 1.05588 0.0 
3.5 1.05871 0.0 
2.74328 1.04222 0.0 
2.15467 1.03048 0.0 
2.2359 1.0641 0.0 
3.5 1.05098 0.0 
2.95382 1.04579 0.0 
3.32328 1.07354 0.0 
3.18943 1.04931 0.0 
1.34183 0.982448 0.0 
1.32737 0.980933 0.0 
1.36305 0.977464 0.0 
1.36845 0.971682 0.0 
1.33273 0.974944 0.0 
1.37488 0.978075 0.0 
1.49905 0.965508 0.0 
1.32148 0.98732 0.0 
1.44394 0.968815 0.0 
1.30797 0.992197 0.0 
1.37188 0.996929 0.0 
1.33981 0.978805 0.0 
1.35049 1.01416 0.0 
1.34938 0.971814 0.0 
1.31575 0.977344 0.0 
1.41039 0.970581 0.0 
1.35549 0.975354 0.0 
1.37092 0.975354 0.0 
1.39542 0.961128 0.0 
1.35503 0.996018 0.0 
1.39138 0.970756 0.0 
1.36419 0.99018 0.0 
1.4901 0.968789 0.0 
1.3806 0.973619 0.0 
1.32607 0.978664 0.0 
1.353 1.01264 0.0 
1.35986 0.974605 0.0 
1.44516 0.971697 0.0 
1.36978 0.979094 0.0 
1.40941 0.97997 0.0 
1.38956 0.980331 0.0 
1.46153 0.972278 0.0 
1.41627 0.977292 0.0 
1.3579 0.997223 0.0 
1.40009 0.95804 0.0 
1.36531 0.974878 0.0 
1.36949 1.00314 0.0 
1.46354 0.959479 0.0 
1.4015 0.975222 0.0 
1.3433 0.974911 0.0 
1.49512 0.963568 0.0 
1.34257 0.981432 0.0 
1.49833 0.968771 0.0 
1.33732 0.974285 0.0 
1.36401 0.982143 0.0 
1.39782 1.0071 0.0 
1.35711 0.971162 0.0 
1.3455 0.972291 0.0 
1.36257 0.995375 0.0 
1.35499 0.982779 0.0 
1.35457 0.97251 0.0 
1.35024 1.01029 0.0 
1.34431 0.984416 0.0 
1.37091 0.966405 0.0 
1.52656 0.958146 0.0 
1.36727 1.0004 0.0 
1.39169 0.997264 0.0 
1.48465 0.964147 0.0 
1.4806 0.962843 0.0 
1.4717 0.971179 0.0 
1.32294 0.980673 0.0 
1.36385 1.00134 0.0 
1.33043 0.982794 0.0 
1.3439 0.973145 0.0 
1.35349 0.981123 0.0 
1.34 0.989582 0.0 
1.35023 1.00438 0.0 
1.3635 0.976604 0.0 
1.36191 0.994212 0.0 
1.43149 0.958676 0.0 
1.36857 0.991047 0.0 
1.34924 0.972693 0.0 
1.35793 1.01354 0.0 
1.43738 0.972843 0.0 
1.34567 0.978876 0.0 
1.35435 0.973797 0.0 
1.48103 0.967088 0.0 
1.453 0.97333 0.0 
1.35401 0.993618 0.0 
1.37988 0.972544 0.0 
1.33581 0.983203 0.0 
1.45782 0.962963 0.0 
1.35924 0.971752 0.0 
1.37885 0.997324 0.0 
1.39498 0.977787 0.0 
1.39358 0.976312 0.0 
1.35005 0.974844 0.0 
1.48449 0.961198 0.0 
1.406 0.962692 0.0 
1.59858 0.978245 0.0 
1.89114 1.0167 0.0 
1.62624 0.976765 0.0 
1.51994 0.996542 0.0 
1.48457 1.00028 0.0 
1.403 0.97087 0.0 
1.52672 0.977467 0.0 
1.3411 0.983619 0.0 
1.3417 0.987263 0.0 
1.34397 1.00262 0.0 
1.39653 0.963488 0.0 
1.49482 0.973397 0.0 
1.50342 0.976957 0.0 
1.6098 0.975294 0.0 
1.81107 1.01669 0.0 
1.61257 0.980924 0.0 
1.33232 1.00008 0.0 
1.55571 0.972093 0.0 
1.49949 1.00315 0.0 
1.32407 0.997078 0.0 
1.56924 0.974107 0.0 
1.63037 0.979405 0.0 
1.57222 0.975619 0.0 
1.76467 0.981097 0.0 
1.72212 0.982608 0.0 
1.37792 0.996334 0.0 
1.47753 0.972989 0.0 
1.73474 0.975739 0.0 
1.82607 0.974598 0.0 
1.53135 0.974913 0.0 
2.08238 0.972021 0.0 
1.75574 0.977154 0.0 
1.41215 1.00405 0.0 
1.5849 0.981169 0.0 
2.11613 1.00983 0.0 
1.35183 1.00004 0.0 
1.53185 0.970397 0.0 
1.4044 1.00365 0.0 
1.80158 0.976499 0.0 
1.52939 0.972773 0.0 
1.58569 0.977449 0.0 
1.654 0.976605 0.0 
1.55066 0.974073 0.0 
1.5041 0.993347 0.0 
1.55585 0.97534 0.0 
1.53442 0.992725 0.0 
1.39785 0.979079 0.0 
1.41938 0.995225 0.0 
1.50329 0.973757 0.0 
1.34257 0.974058 0.0 
1.33892 0.973562 0.0 
1.4217 0.994206 0.0 
1.68916 0.977997 0.0 
1.65767 0.982114 0.0 
1.53857 0.973284 0.0 
1.84549 0.979059 0.0 
1.35202 0.973265 0.0 
1.6234 0.982408 0.0 
1.33083 0.996353 0.0 
1.3841 0.993767 0.0 
1.65314 1.00119 0.0 
1.52183 0.974159 0.0 
1.47143 0.996309 0.0 
1.80154 0.979694 0.0 
1.31528 0.986799 0.0 
1.39171 0.993378 0.0 
1.53871 0.975899 0.0 
1.48197 1.00104 0.0 
1.4055 0.97923 0.0 
1.68786 0.976298 0.0 
1.64166 0.996003 0.0 
1.44134 0.955084 0.0 
1.65088 0.98011 0.0 
1.68669 0.9798 0.0 
1.53191 0.964941 0.0 
1.36411 1.01226 0.0 
1.49755 0.982097 0.0 
1.42652 0.981102 0.0 
1.89733 0.974769 0.0 
1.4274 0.999681 0.0 
1.65673 0.978094 0.0 
1.40198 1.0007 0.0 
1.95077 1.00471 0.0 
1.52506 0.995853 0.0 
1.49015 0.991804 0.0 
1.54247 0.971694 0.0 
1.80544 0.981728 0.0 
1.55983 1.00558 0.0 
1.51351 1.0012 0.0 
1.97425 0.983963 0.0 
1.49236 0.995967 0.0 
1.43557 0.971686 0.0 
1.92424 0.98989 0.0 
1.54953 0.978546 0.0 
1.51775 0.970264 0.0 
1.5737 0.993698 0.0 
1.39851 0.980509 0.0 
1.52539 0.997207 0.0 
1.52371 1.00421 0.0 
1.42463 0.980087 0.0 
1.62834 0.978137 0.0 
1.47164 0.98266 0.0 
1.38977 0.995294 0.0 
1.53267 0.966873 0.0 
1.59394 0.975011 0.0 
1.94955 0.974215 0.0 
1.57026 0.978643 0.0 
1.60492 0.976652 0.0 
1.56899 0.972614 0.0 
1.45333 0.997078 0.0 
1.36293 0.969518 0.0 
1.60415 0.979704 0.0 
1.39499 1.00279 0.0 
1.78654 0.97504 0.0 
1.76938 0.978818 0.0 
1.56601 0.97745 0.0 
2.65034 1.02979 0.0 
2.02521 0.986042 0.0 
1.81201 1.01422 0.0 
1.38441 0.99963 0.0 
1.45643 0.996051 0.0 
1.49857 0.979101 0.0 
1.33557 0.977341 0.0 
2.01076 0.99451 0.0 
1.72625 0.978889 0.0 
2.01243 0.973775 0.0 
1.49262 0.998707 0.0 
1.48661 0.977003 0.0 
2.71052 0.997151 0.0 
1.48616 0.97195 0.0 
1.43019 0.952873 0.0 
1.496 0.970917 0.0 
1.38789 0.972569 0.0 
1.52764 0.971829 0.0 
1.5087 0.975395 0.0 
1.75047 1.00746 0.0 
1.41981 0.99204 0.0 
1.54733 0.99775 0.0 
1.43903 0.97805 0.0 
1.62565 0.995976 0.0 
1.59811 0.989413 0.0 
1.49475 0.962235 0.0 
1.35273 0.976295 0.0 
1.5441 0.994076 0.0 
1.49913 0.980245 0.0 
1.49512 0.999904 0.0 
1.51085 0.999915 0.0 
2.12706 0.981591 0.0 
1.53048 0.995039 0.0 
1.47197 0.958061 0.0 
1.46231 0.971008 0.0 
1.32545 0.976978 0.0 
2.3541 1.01056 0.0 
1.38953 0.985857 0.0 
1.5728 0.980145 0.0 
1.50489 0.988931 0.0 
2.29802 0.999925 0.0 
1.33635 0.982069 0.0 
1.67895 1.00736 0.0 
1.50983 0.996115 0.0 
1.46588 1.00282 0.0 
2.04856 1.00842 0.0 
1.36972 0.994772 0.0 
1.49368 0.991198 0.0 
1.46815 0.962381 0.0 
1.53188 0.978595 0.0 
1.33735 0.978002 0.0 
1.69958 0.997549 0.0 
1.69518 1.00425 0.0 
1.87747 0.983916 0.0 
1.71851 0.977916 0.0 
1.8232 0.977763 0.0 
1.48055 0.996018 0.0 
1.91682 0.976024 0.0 
1.64729 0.98757 0.0 
1.71316 1.00808 0.0 
1.5209 0.976458 0.0 
1.58544 0.996775 0.0 
1.3123 0.983533 0.0 
1.66332 0.998547 0.0 
1.48412 1.00238 0.0 
1.4764 0.988425 0.0 
1.75561 1.0136 0.0 
2.18974 1.01517 0.0 
1.6479 1.00703 0.0 
1.40374 0.999556 0.0 
1.47359 0.998041 0.0 
1.39252 0.984548 0.0 
1.59686 0.984228 0.0 
1.32342 0.993409 0.0 
1.39612 0.972936 0.0 
1.41534 0.996941 0.0 
1.77462 0.99046 0.0 
1.51887 0.980104 0.0 
1.50968 1.00261 0.0 
1.52653 0.993773 0.0 
1.51379 0.978903 0.0 
1.55283 1.01133 0.0 
1.37805 0.979101 0.0 
1.36992 1.00418 0.0 
1.46636 1.00044 0.0 
1.48465 0.970599 0.0 
1.65965 0.990104 0.0 
1.35112 1.01531 0.0 
1.52382 1.00085 0.0 
2.11373 1.01326 0.0 
1.96564 0.996827 0.0 
2.28748 1.00834 0.0 
2.54261 1.00852 0.0 
1.50773 0.977908 0.0 
1.81653 0.991218 0.0 
2.72786 1.00108 0.0 
1.48716 0.983162 0.0 
1.32227 0.990513 0.0 
1.54422 1.00663 0.0 
1.62531 0.991956 0.0 
1.56737 0.984333 0.0 
2.00131 1.01599 0.0 
1.32116 0.976757 0.0 
1.4031 1.00944 0.0 
1.54203 1.00435 0.0 
2.56065 0.997841 0.0 
1.54784 0.981066 0.0 
1.60737 0.985683 0.0 
1.6328 1.01171 0.0 
1.58818 0.993254 0.0 
1.53545 0.979593 0.0 
1.35882 0.98073 0.0 
1.38158 0.981431 0.0 
2.26321 0.985182 0.0 
1.64166 1.00297 0.0 
1.5485 0.976997 0.0 
1.60259 0.999004 0.0 
2.02851 0.996882 0.0 
2.25173 0.990198 0.0 
1.50113 0.996686 0.0 
2.45264 0.99296 0.0 
1.80002 1.0064 0.0 
1.42221 0.990927 0.0 
1.36236 0.979159 0.0 
1.39526 0.98301 0.0 
1.57905 1.0082 0.0 
1.48899 0.989259 0.0 
2.0882 0.988583 0.0 
1.49987 0.990209 0.0 
1.75696 0.988898 0.0 
1.61462 0.988388 0.0 
1.43582 0.980399 0.0 
2.14138 1.00302 0.0 
1.63819 0.994479 0.0 
2.21564 1.00169 0.0 
2.25667 0.996001 0.0 
1.49821 0.994268 0.0 
1.49606 0.976037 0.0 
1.34707 0.973496 0.0 
2.60385 1.01236 0.0 
1.45227 0.980441 0.0 
1.46347 0.97892 0.0 
1.84962 1.00222 0.0 
2.37339 0.97834 0.0 
1.91854 0.991417 0.0 
1.46205 0.996574 0.0 
1.86459 0.992373 0.0 
2.23031 0.987559 0.0 
2.61355 1.01712 0.0 
1.52605 0.991513 0.0 
1.50063 0.99237 0.0 
1.87046 0.973225 0.0 
1.71694 0.980602 0.0 
2.08967 0.983295 0.0 
1.64862 0.999529 0.0 
1.47222 1.00509 0.0 
1.895 1.00597 0.0 
1.54667 0.985072 0.0 
1.87311 0.97688 0.0 
1.62551 0.99696 0.0 
1.50054 0.984112 0.0 
1.58236 0.99053 0.0 
2.12013 0.979866 0.0 
1.95402 1.00179 0.0 
1.4337 0.979306 0.0 
1.45897 0.975472 0.0 
1.92652 0.988136 0.0 
2.03077 0.98406 0.0 
1.40843 0.995651 0.0 
2.22109 0.998546 0.0 
1.41587 0.984755 0.0 
1.34457 0.975865 0.0 
1.47353 0.978039 0.0 
1.70846 1.01277 0.0 
1.56897 0.985971 0.0 
1.48302 0.980107 0.0 
2.2337 1.01169 0.0 
1.62376 1.01054 0.0 
1.5348 0.996498 0.0 
2.2369 0.98271 0.0 
1.59992 1.00473 0.0 
1.86275 0.98024 0.0 
3.33635 0.978619 0.0 
1.60638 0.997514 0.0 
2.21572 0.992876 0.0 
1.53516 0.986205 0.0 
2.07986 0.978846 0.0 
1.61011 0.990638 0.0 
1.2838 0.983907 0.0 
1.74548 0.993973 0.0 
2.18506 0.995965 0.0 
1.686 0.983937 0.0 
1.58872 0.97625 0.0 
1.36754 0.978147 0.0 
1.31408 1.01566 0.0 
[...]
<PointData>
  <DataArray type = "Float64" Name="Vitesse" NumberOfComponents="3" format="ascii">
0.980877 -0.00185605 0.0 
0.965984 -0.00233089 0.0 
0.979009 -0.00220625 0.0 
0.967874 -0.00202052 0.0 
0.971674 -0.00166637 0.0 
0.976668 -0.00132481 0.0 
0.98264 -0.00153481 0.0 
0.955189 -0.00498663 0.0 
0.972243 -0.00367316 0.0 
0.973341 -0.00278335 0.0 
1.00221 -0.00409966 0.0 
0.936456 -0.00532399 0.0 
1.00709 -0.00422973 0.0 
0.997279 -0.00195638 0.0 
0.956516 -0.00401418 0.0 
0.995817 -0.00333098 0.0 
0.991519 -0.00525086 0.0 
1.00739 -0.00263179 0.0 
0.980551 -0.00649112 0.0 
1.004 -0.0019041 0.0 
1.0073 -0.00102439 0.0 
1.00385 -0.00106555 0.0 
1.00933 -0.00101101 0.0 
0.985058 -0.00341465 0.0 
0.93557 -0.00634499 0.0 
1.01168 -0.0085697 0.0 
0.998242 -0.00631795 0.0 
0.915046 -0.00665412 0.0 
0.990141 -0.0063351 0.0 
0.983025 -0.0044188 0.0 
1.00877 -0.00185902 0.0 
0.981706 -0.00545272 0.0 
1.01029 -0.00630613 0.0 
1.00675 -0.00772083 0.0 
1.01016 -0.00567905 0.0 
1.00434 -0.00145731 0.0 
0.99459 -0.00242856 0.0 
0.95445 -0.00603966 0.0 
1.01025 -0.00311613 0.0 
0.991527 -0.00422774 0.0 
0.99835 -0.00482776 0.0 
1.00935 -0.00163846 0.0 
1.00957 -0.00226099 0.0 
0.970664 -0.00468063 0.0 
1.00464 -0.00616966 0.0 
1.00218 -0.00268126 0.0 
0.99824 -0.00153837 0.0 
0.998557 -0.00112762 0.0 
0.987118 -0.00261116 0.0 
0.969359 -0.00570226 0.0 
1.00934 -0.00478132 0.0 
0.990041 -0.00120897 0.0 
0.989161 -0.00204303 0.0 
1.00739 -0.00128097 0.0 
0.990883 -0.0016711 0.0 
0.381039 0.0592289 0.0 
0.405905 0.0682678 0.0 
0.408101 0.0350508 0.0 
0.491865 0.024767 0.0 
0.493102 0.0546629 0.0 
0.402055 0.0215532 0.0 
0.701646 -0.00803517 0.0 
0.358862 0.0738579 0.0 
0.576551 -0.01669 0.0 
0.329348 0.070513 0.0 
0.510601 0.0010567 0.0 
0.415467 0.0577877 0.0 
0.80005 -0.0271919 0.0 
0.522174 0.0383362 0.0 
0.48274 0.0660126 0.0 
0.506137 -0.0066521 0.0 
0.442009 0.0404269 0.0 
0.428043 0.0256746 0.0 
0.735618 -0.000400896 0.0 
0.457908 0.0249267 0.0 
0.495684 0.00609249 0.0 
0.417459 0.0246395 0.0 
0.639057 -0.0131254 0.0 
0.448035 0.0154535 0.0 
0.43938 0.0653582 0.0 
0.769361 -0.0248419 0.0 
0.44798 0.0357048 0.0 
0.533054 -0.0211595 0.0 
0.395001 0.0274564 0.0 
0.424243 -0.0158433 0.0 
0.403184 0.00302962 0.0 
0.549955 -0.0225176 0.0 
0.440087 -0.0176938 0.0 
0.480542 0.0180109 0.0 
0.808915 -0.00339863 0.0 
0.438609 0.0308253 0.0 
0.607409 -0.0114835 0.0 
0.785728 -0.00740923 0.0 
0.437582 -0.00421035 0.0 
0.470343 0.0486088 0.0 
0.732246 -0.00720754 0.0 
0.387174 0.0580714 0.0 
0.648139 -0.0112132 0.0 
0.495812 0.0507259 0.0 
0.383796 0.0337148 0.0 
0.736037 -0.0362661 0.0 
0.521277 0.0322475 0.0 
0.520054 0.0416104 0.0 
0.468465 0.016463 0.0 
0.37935 0.0450528 0.0 
0.496217 0.0365235 0.0 
0.703888 -0.0162809 0.0 
0.373772 0.0568951 0.0 
0.617946 0.0154069 0.0 
0.835214 -0.000748126 0.0 
0.55331 -0.00207042 0.0 
0.551675 -0.0198615 0.0 
0.712619 -0.00902362 0.0 
0.733224 -0.00839668 0.0 
0.579613 -0.0197334 0.0 
0.414856 0.0699661 0.0 
0.559727 -0.000759628 0.0 
0.384589 0.0683358 0.0 
0.50481 0.0444948 0.0 
0.384818 0.0468266 0.0 
0.375155 0.0574006 0.0 
0.571159 0.00431349 0.0 
0.417228 0.034056 0.0 
0.45322 0.019971 0.0 
0.788641 -0.00712128 0.0 
0.432941 0.0170142 0.0 
0.502681 0.0403533 0.0 
0.802302 -0.029735 0.0 
0.506711 -0.021408 0.0 
0.407491 0.0531601 0.0 
0.470464 0.0390441 0.0 
0.656341 -0.0127687 0.0 
0.52441 -0.0240912 0.0 
0.42942 0.032056 0.0 
0.465237 0.0157206 0.0 
0.378969 0.0648515 0.0 
0.709283 -0.0103551 0.0 
0.504266 0.0318117 0.0 
0.531013 -0.0076393 0.0 
0.414866 -0.000544797 0.0 
0.422716 0.00213217 0.0 
0.458765 0.0439487 0.0 
0.766863 -0.00666157 0.0 
0.688672 -0.00262843 0.0 
0.571891 0.00454285 0.0 
0.898259 -0.00817312 0.0 
0.58556 0.00438148 0.0 
0.558322 -0.0203532 0.0 
0.61337 -0.0315818 0.0 
0.496897 -0.00219723 0.0 
0.559832 -0.00903605 0.0 
0.375832 0.0601502 0.0 
0.371609 0.058158 0.0 
0.516137 0.0174544 0.0 
0.67111 0.000798925 0.0 
0.579788 -0.0169879 0.0 
0.548977 -0.0174091 0.0 
0.597445 0.00488371 0.0 
0.899693 -0.00945807 0.0 
0.559219 0.00410949 0.0 
0.436167 0.0388814 0.0 
0.632292 0.00016952 0.0 
0.657759 -0.0264625 0.0 
0.380106 0.0553446 0.0 
0.608923 0.00204917 0.0 
0.569498 0.00377203 0.0 
0.592745 0.00246604 0.0 
0.601205 -0.00460053 0.0 
0.587467 -0.00369134 0.0 
0.514575 -0.00470216 0.0 
0.563659 -0.0211018 0.0 
0.611267 -0.00225298 0.0 
0.64166 -0.00304618 0.0 
0.589095 -0.00644657 0.0 
0.696857 -0.000797996 0.0 
0.609576 -0.00323217 0.0 
0.690893 -0.0372363 0.0 
0.550642 0.00320914 0.0 
0.843418 -0.00590975 0.0 
0.502313 0.017424 0.0 
0.647926 -0.00408131 0.0 
0.677642 -0.0348938 0.0 
0.625336 -0.00360538 0.0 
0.614324 -0.00590652 0.0 
0.576604 0.00356351 0.0 
0.589865 0.00300632 0.0 
0.606309 -0.00133178 0.0 
0.52422 -0.0255256 0.0 
0.592642 -0.000565736 0.0 
0.529203 -0.0141726 0.0 
0.413365 -0.00453609 0.0 
0.546024 -0.03491 0.0 
0.583781 -0.0146664 0.0 
0.488542 0.0473223 0.0 
0.507254 0.0482238 0.0 
0.532961 -0.0354966 0.0 
0.587965 8.26204e-05 0.0 
0.567564 0.00157788 0.0 
0.61206 -0.00382013 0.0 
0.626697 -0.00397354 0.0 
0.485261 0.0396436 0.0 
0.557169 0.00353444 0.0 
0.39453 0.0521468 0.0 
0.490145 -0.00710885 0.0 
0.69456 -0.00765694 0.0 
0.592819 -0.00878591 0.0 
0.558644 -0.0364096 0.0 
0.613999 -0.00438684 0.0 
0.359733 0.0759396 0.0 
0.495795 -0.0146033 0.0 
0.581271 -0.00486147 0.0 
0.626568 -0.0321079 0.0 
0.420988 -0.0116436 0.0 
0.596976 0.000543768 0.0 
0.626771 -0.00424098 0.0 
0.863022 -0.00665505 0.0 
0.570823 0.00263883 0.0 
0.580471 -0.000155606 0.0 
0.730726 -0.00188134 0.0 
0.786298 -0.0302387 0.0 
0.506075 -0.0237388 0.0 
0.443456 -0.0287347 0.0 
0.655599 -0.00242518 0.0 
0.618588 -0.0383192 0.0 
0.581147 0.00261529 0.0 
0.621978 -0.0309969 0.0 
0.785507 -0.00713016 0.0 
0.552358 -0.0184655 0.0 
0.510657 -0.0308267 0.0 
0.63411 -0.00242512 0.0 
0.612085 -0.00495551 0.0 
0.705556 -0.0139242 0.0 
0.622839 -0.0227829 0.0 
0.651255 -0.00330587 0.0 
0.549928 -0.0300462 0.0 
0.519162 -0.0190769 0.0 
0.659248 -0.00521731 0.0 
0.559065 -0.00293169 0.0 
0.641862 -0.00753843 0.0 
0.559606 -0.00495611 0.0 
0.412062 -0.00663606 0.0 
0.567639 -0.0188011 0.0 
0.673904 -0.0201748 0.0 
0.441889 -0.026575 0.0 
0.57612 0.00414137 0.0 
0.484723 -0.0335919 0.0 
0.519374 -0.0153152 0.0 
0.700633 -0.00254131 0.0 
0.600094 0.00432481 0.0 
0.667834 -0.00169952 0.0 
0.564452 0.00174264 0.0 
0.584857 0.00471529 0.0 
0.626857 0.0021939 0.0 
0.574276 -0.0392371 0.0 
0.550079 0.0253477 0.0 
0.563185 0.0045273 0.0 
0.651266 -0.0298161 0.0 
0.629233 -0.00317232 0.0 
0.607212 -0.00405586 0.0 
0.573678 0.00114933 0.0 
0.957207 -0.00322175 0.0 
0.665479 -0.00323149 0.0 
0.877325 -0.00944942 0.0 
0.578331 -0.0172632 0.0 
0.559244 -0.039122 0.0 
0.52589 -0.0211196 0.0 
0.443384 0.0581958 0.0 
0.703955 -0.00500172 0.0 
0.595009 -0.00266066 0.0 
0.678973 -0.00121342 0.0 
0.586299 -0.0295255 0.0 
0.532204 -0.0236256 0.0 
0.793108 -0.00272245 0.0 
0.588224 -0.017784 0.0 
0.899277 -0.00682168 0.0 
0.613928 -0.0140251 0.0 
0.463755 0.00885772 0.0 
0.626146 -0.00575507 0.0 
0.569465 -0.0141637 0.0 
0.802121 -0.0102175 0.0 
0.504565 -0.0336075 0.0 
0.58228 -0.0126526 0.0 
0.465794 -0.0292305 0.0 
0.616415 -0.00362313 0.0 
0.550425 -1.09232e-05 0.0 
0.755414 -0.00615272 0.0 
0.431199 0.0440602 0.0 
0.54346 -0.0117151 0.0 
0.518213 -0.0218221 0.0 
0.604544 -0.0284442 0.0 
0.602204 -0.0236328 0.0 
0.677898 -0.00215906 0.0 
0.545769 -0.0164463 0.0 
0.817765 -0.0059977 0.0 
0.568435 -0.0206643 0.0 
0.46957 0.0623545 0.0 
0.858013 -0.00459952 0.0 
0.419275 -0.00285718 0.0 
0.553704 0.0017563 0.0 
0.500623 -0.0239074 0.0 
0.779243 -0.0042894 0.0 
0.386279 0.0638202 0.0 
0.787202 -0.0105888 0.0 
0.55219 -0.0237302 0.0 
0.664619 -0.0350704 0.0 
0.827702 -0.0063078 0.0 
0.476672 0.00839785 0.0 
0.507154 -0.0293496 0.0 
0.730668 -0.00934475 0.0 
0.551719 -0.00793749 0.0 
0.42987 0.0583279 0.0 
0.67226 -0.00746137 0.0 
0.751969 -0.00976633 0.0 
0.63012 -0.0046686 0.0 
0.596398 -0.00193032 0.0 
0.625522 -0.00386203 0.0 
0.552484 -0.0339978 0.0 
0.653137 -0.00243071 0.0 
0.569948 0.000317824 0.0 
0.804224 -0.0106621 0.0 
0.566611 -0.0104729 0.0 
0.595702 -0.00555729 0.0 
0.39053 0.0751649 0.0 
0.66739 -0.00656637 0.0 
0.648976 -0.0309877 0.0 
0.490594 -0.0354954 0.0 
0.870744 -0.0105563 0.0 
0.886945 -0.00559385 0.0 
0.771034 -0.0104413 0.0 
0.60378 -0.0307184 0.0 
0.581983 -0.0353429 0.0 
0.415454 -0.00475704 0.0 
0.544531 0.00278508 0.0 
0.359626 0.0652811 0.0 
0.460108 0.00187648 0.0 
0.569722 -0.0340439 0.0 
0.630263 -0.00717405 0.0 
0.532868 -0.0134484 0.0 
0.646794 -0.0236906 0.0 
0.533599 -0.0172908 0.0 
0.53902 -0.0147658 0.0 
0.801779 -0.016208 0.0 
0.397785 0.0173634 0.0 
0.628385 -0.0146521 0.0 
0.622747 -0.0360077 0.0 
0.605247 -0.0164587 0.0 
0.588103 -0.00186685 0.0 
0.828299 -0.0299869 0.0 
0.617474 -0.0198968 0.0 
0.871278 -0.00605712 0.0 
0.713935 -0.00592125 0.0 
0.839868 -0.00488155 0.0 
0.849838 -0.00375322 0.0 
0.543528 -0.0164641 0.0 
0.644186 -0.00722753 0.0 
0.813493 -0.00285898 0.0 
0.495067 -0.0288441 0.0 
0.353137 0.0710093 0.0 
0.719288 -0.0165931 0.0 
0.581013 -0.00102118 0.0 
0.531692 -0.000651609 0.0 
0.891054 -0.00696894 0.0 
0.482925 0.0634759 0.0 
0.784723 -0.039551 0.0 
0.678464 -0.0163687 0.0 
0.787109 -0.00316504 0.0 
0.539424 -0.00435749 0.0 
0.548053 0.00249505 0.0 
0.830244 -0.0123176 0.0 
0.565871 -0.00277583 0.0 
0.545012 -0.00734063 0.0 
0.386337 0.0405829 0.0 
0.395824 0.0114614 0.0 
0.70323 -0.00254875 0.0 
0.711913 -0.00836855 0.0 
0.573337 -0.00255312 0.0 
0.633907 -0.00618997 0.0 
0.724606 -0.00522075 0.0 
0.717622 -0.00328859 0.0 
0.55828 -0.0268356 0.0 
0.75382 -0.00303574 0.0 
0.793783 -0.00945989 0.0 
0.493511 -0.0342156 0.0 
0.394666 0.0362905 0.0 
0.412158 -0.00616426 0.0 
0.757462 -0.0131045 0.0 
0.497071 -0.0309515 0.0 
0.6854 -0.00345591 0.0 
0.503471 -0.0265181 0.0 
0.616608 -0.00665491 0.0 
0.555872 0.00139038 0.0 
0.45453 -0.030975 0.0 
0.788398 -0.00526451 0.0 
0.609768 -0.00317699 0.0 
0.784587 -0.00475427 0.0 
0.749135 -0.00399815 0.0 
0.531494 -0.0279251 0.0 
0.551326 -0.0192918 0.0 
0.49063 0.0433354 0.0 
0.874194 -0.0035843 0.0 
0.472412 -0.0334988 0.0 
0.491694 -0.0312639 0.0 
0.750472 -0.00839973 0.0 
0.714472 -0.00151205 0.0 
0.6663 -0.00561522 0.0 
0.564747 -0.0383149 0.0 
0.661867 -0.00677463 0.0 
0.704654 -0.00295631 0.0 
0.901042 -0.00355947 0.0 
0.518603 -0.0165476 0.0 
0.515927 -0.0267348 0.0 
0.659817 -0.00244838 0.0 
0.587541 -0.00273805 0.0 
0.672466 -0.0025164 0.0 
0.671105 -0.00659156 0.0 
0.703268 -0.0327201 0.0 
0.794101 -0.00802032 0.0 
0.521964 -0.00604729 0.0 
0.640438 -0.00315099 0.0 
0.62655 -0.00433968 0.0 
0.500487 -0.0238256 0.0 
0.546668 -0.00160307 0.0 
0.677527 -0.00188455 0.0 
0.757034 -0.00679179 0.0 
0.454545 -0.0290719 0.0 
0.511121 -0.0273514 0.0 
0.651612 -0.00482204 0.0 
0.662606 -0.00280957 0.0 
0.545345 -0.0296749 0.0 
0.762116 -0.00441869 0.0 
0.441028 -0.0258423 0.0 
0.450787 0.0496242 0.0 
0.509117 -0.0286698 0.0 
0.858836 -0.0113973 0.0 
0.530214 -0.00103087 0.0 
0.505436 -0.0280607 0.0 
0.862751 -0.00526972 0.0 
0.81096 -0.0120143 0.0 
0.562621 -0.0156895 0.0 
0.695867 -0.00222314 0.0 
0.71269 -0.010126 0.0 
0.628122 -0.00403766 0.0 
0.789409 -0.00065493 0.0 
0.618977 -0.00502473 0.0 
0.725698 -0.00375457 0.0 
0.513828 -0.0104948 0.0 
0.672341 -0.00176685 0.0 
0.563142 -8.14978e-05 0.0 
0.390614 0.0564992 0.0 
0.650536 -0.00773265 0.0 
0.740287 -0.0042819 0.0 
0.576743 -0.0013305 0.0 
0.587688 0.00389095 0.0 
0.401071 0.0301206 0.0 
0.741869 -0.0167575 0.0 
0.71891 -0.00404945 0.0 
0.512581 -0.0268595 0.0 
0.69047 -0.00203961 0.0 
0.558472 -0.0350292 0.0 
0.586437 -0.0187693 0.0 
0.542717 0.00264187 0.0 
0.688697 -0.0023718 0.0 
0.639826 -0.00753792 0.0 
0.441681 -0.00810128 0.0 
0.68516 -0.00213786 0.0 
0.685063 -0.00892782 0.0 
0.758664 -0.00482037 0.0 
0.789982 -0.0225809 0.0 
0.873408 -0.00767095 0.0 
0.706502 -0.00339457 0.0 
0.481711 -0.0291317 0.0 
0.425789 -0.0159526 0.0 
0.87337 -0.00412899 0.0 
0.499592 -0.0392082 0.0 
0.46264 -0.0217353 0.0 
0.813704 -0.00874156 0.0 
0.780169 -0.00283424 0.0 
0.482751 -0.0365324 0.0 
0.819302 -0.0132322 0.0 
0.530534 -0.00166728 0.0 
0.696611 -0.00299086 0.0 
0.537455 -0.0400363 0.0 
0.523797 -0.0259422 0.0 
0.593157 0.0224854 0.0 
0.695382 -0.00262027 0.0 
0.700576 -0.00370908 0.0 
0.469737 -0.0367648 0.0 
0.58719 -0.0212955 0.0 
0.667182 -0.00226595 0.0 
0.639246 -0.0353499 0.0 
0.713547 -0.00914119 0.0 
0.683675 -0.00758379 0.0 
0.620939 -0.0125193 0.0 
0.520593 -0.0320432 0.0 
0.479795 -0.0366353 0.0 
0.439853 0.0228426 0.0 
0.598864 -0.0145769 0.0 
0.815748 -0.00559723 0.0 
0.59824 -0.00462393 0.0 
0.405098 -0.000428212 0.0 
0.779145 -0.0112704 0.0 
0.514358 -0.0325605 0.0 
0.514081 0.0186875 0.0 
0.733516 -0.0115244 0.0 
0.408158 0.0099113 0.0 
0.575062 -0.0262524 0.0 
0.593649 -0.0049121 0.0 
0.601397 -0.0338331 0.0 
0.515956 -0.00891242 0.0 
0.808113 -0.00505287 0.0 
0.732701 -0.00656893 0.0 
0.522271 -0.0205513 0.0 
0.831554 -0.00444159 0.0 
0.458197 -0.0350084 0.0 
0.684449 -0.00117164 0.0 
0.635243 -0.0097646 0.0 
0.567786 -0.0256735 0.0 
0.91157 -0.0056448 0.0 
0.477042 -0.0267044 0.0 
0.634099 -0.0077499 0.0 
0.544868 -0.00553136 0.0 
0.69664 -0.00178654 0.0 
0.442399 0.0290167 0.0 
0.49533 -0.0277164 0.0 
0.427729 -0.00554371 0.0 
0.522192 -0.029991 0.0 
0.552369 0.0020967 0.0 
0.684141 -0.00781374 0.0 
0.743814 -0.0105775 0.0 
0.440154 0.037764 0.0 
0.578501 -0.0173637 0.0 
0.793739 -0.0111286 0.0 
0.684067 -0.00830824 0.0 
0.764444 -0.00648247 0.0 
0.766773 -0.00293406 0.0 
0.381662 0.0474996 0.0 
0.511764 0.0258949 0.0 
0.52049 -0.0267359 0.0 
0.602448 -0.00397822 0.0 
0.712041 -0.00374915 0.0 
0.595004 -0.0390562 0.0 
0.722728 -0.00927019 0.0 
0.560672 0.00223928 0.0 
0.491809 -0.0261638 0.0 
0.918462 -0.00385488 0.0 
0.461957 0.0111984 0.0 
0.376595 0.0527628 0.0 
0.554146 -0.0224844 0.0 
0.825881 -0.00991191 0.0 
0.401252 0.051356 0.0 
0.69584 -0.000828146 0.0 
0.813432 -0.00770521 0.0 
0.549039 -0.00312543 0.0 
0.408125 0.00525906 0.0 
0.525525 -0.00590303 0.0 
0.648486 -0.00541374 0.0 
0.466056 -0.0328471 0.0 
0.536036 -0.00182045 0.0 
0.505149 -0.0360941 0.0 
0.744396 -0.00571074 0.0 
0.595733 -0.0327685 0.0 
0.659355 -0.00672084 0.0 
0.500602 -0.0291342 0.0 
0.533661 -0.0244946 0.0 
0.77262 -0.00979045 0.0 
0.612041 -0.0389245 0.0 
0.673149 -0.0131418 0.0 
0.559457 -0.0397323 0.0 
0.656267 -0.00210313 0.0 
0.657018 -0.00760453 0.0 
0.570725 -0.0284501 0.0 
0.859453 -0.00667992 0.0 
0.69286 -0.00770504 0.0 
0.517087 -0.0229304 0.0 
0.574758 -0.00154751 0.0 
0.779244 -0.0102037 0.0 
0.717289 -0.00894347 0.0 
0.52629 -0.00962019 0.0 
0.394752 0.0675508 0.0 
0.423501 0.0417131 0.0 
0.49965 -0.0215343 0.0 
0.522537 -0.00691949 0.0 
0.895701 -0.00617684 0.0 
0.513446 -0.0147478 0.0 
0.406621 0.0478656 0.0 
0.825212 -0.00267821 0.0 
0.616047 -0.00652368 0.0 
0.533856 -0.00500584 0.0 
0.407973 0.0475411 0.0 
0.435622 -0.0219764 0.0 
0.464498 -0.00561552 0.0 
0.370483 0.0607868 0.0 
0.541221 -0.024037 0.0 
0.587934 -0.025334 0.0 
0.766537 -0.0121434 0.0 
0.475295 -0.0308057 0.0 
0.612879 -0.00659611 0.0 
0.668927 -0.00164088 0.0 
0.5629 -0.00118711 0.0 
0.566534 -0.0392211 0.0 
0.438167 -0.026278 0.0 
0.647174 -0.00716595 0.0 
0.855666 -0.0123665 0.0 
0.781844 -0.0138354 0.0 
0.460168 -0.0339698 0.0 
0.57144 -0.0109402 0.0 
0.653091 -0.00602449 0.0 
0.411924 0.049715 0.0 
0.501383 -0.0320879 0.0 
0.817733 -0.0111032 0.0 
0.723525 -0.00282953 0.0 
0.595534 -0.0363484 0.0 
0.887513 -0.00483922 0.0 
0.573387 -0.000152977 0.0 
0.487843 -0.0323838 0.0 
0.450448 -0.0316015 0.0 
0.573372 -0.0218542 0.0 
0.487219 -0.0202703 0.0 
0.541685 -0.0264477 0.0 
0.522171 -0.0343302 0.0 
0.506167 -0.0167815 0.0 
0.603884 -0.0392866 0.0 
0.687649 -0.00276636 0.0 
0.767121 -0.00544924 0.0 
0.476778 -0.00604051 0.0 
0.573442 -0.0111309 0.0 
0.937986 -0.00434613 0.0 
0.377235 0.0758472 0.0 
0.564968 -0.0309821 0.0 
0.895905 -0.0108561 0.0 
0.852662 -0.00565527 0.0 
0.532892 -0.0197771 0.0 
0.507921 -0.0164592 0.0 
0.691227 -0.00322932 0.0 
0.579674 -0.0388184 0.0 
0.850826 -0.00407662 0.0 
0.523093 -0.0398438 0.0 
0.870111 -0.012305 0.0 
0.508926 -0.0196738 0.0 
0.688268 -0.0108485 0.0 
0.602129 -0.0126994 0.0 
0.662367 -0.0039042 0.0 
0.65596 -0.00230203 0.0 
0.882944 -0.00860422 0.0 
0.916206 -0.0046462 0.0 
0.614592 -0.00904538 0.0 
0.545742 0.0108989 0.0 
0.518266 -0.0191656 0.0 
0.822215 -0.0040481 0.0 
0.511104 -0.0260602 0.0 
0.481659 -0.0324063 0.0 
0.744586 -0.00981279 0.0 
0.603726 -0.0056829 0.0 
0.67653 -0.00296398 0.0 
0.749161 -0.00970089 0.0 
0.383207 0.0532827 0.0 
0.422379 0.00126308 0.0 
0.536933 -0.00224793 0.0 
0.577856 -0.000649079 0.0 
0.498088 0.0610605 0.0 
0.517744 -0.0126141 0.0 
0.668729 -0.00156588 0.0 
0.703548 -0.00888199 0.0 
0.498552 -0.02004 0.0 
0.620912 -0.0112403 0.0 
0.559426 -0.00787724 0.0 
0.603612 -0.00539394 0.0 
0.456789 -0.0338661 0.0 
0.762316 -0.00917122 0.0 
0.488922 -0.03901 0.0 
0.57761 -0.019677 0.0 
0.895746 -0.00407951 0.0 
0.571041 -0.020447 0.0 
0.633523 -0.0332816 0.0 
0.469648 -0.0371394 0.0 
0.511076 -0.0194655 0.0 
0.663282 -0.0080317 0.0 
0.804334 -0.00420647 0.0 
0.696196 -0.018008 0.0 
0.57861 -0.0327564 0.0 
0.485099 -0.0360406 0.0 
0.550644 -0.0393766 0.0 
0.475173 -0.0386015 0.0 
0.834236 -0.0052451 0.0 
0.538522 -0.019562 0.0 
0.794796 -0.000185561 0.0 
0.565189 -0.0234864 0.0 
0.488408 -0.0393179 0.0 
0.600356 -0.00253126 0.0 
0.68513 -0.00152526 0.0 
0.656951 -0.00263213 0.0 
0.469653 0.00255468 0.0 
0.775803 -0.00623711 0.0 
0.603712 -0.00383476 0.0 
0.613789 -0.0345875 0.0 
0.533797 -0.017877 0.0 
0.661333 -0.0324919 0.0 
0.670633 -0.00449018 0.0 
0.654195 -0.00261295 0.0 
0.64475 -0.0179163 0.0 
0.670002 -0.00217348 0.0 
0.375002 0.0580835 0.0 
0.804699 -0.00255703 0.0 
0.681754 -0.0011895 0.0 
0.628373 -0.0128136 0.0 
0.461296 -0.0266895 0.0 
0.630917 -0.0370607 0.0 
0.722126 -0.0314352 0.0 
0.590045 -0.00830601 0.0 
0.62444 -0.00837775 0.0 
0.836714 -0.00828995 0.0 
0.50205 -0.0274473 0.0 
0.550956 -0.0375144 0.0 
0.689906 -0.00119073 0.0 
0.755786 -0.039348 0.0 
0.598967 -0.00269377 0.0 
0.529367 -0.0323184 0.0 
0.431954 -0.0184337 0.0 
0.47843 -0.0269057 0.0 
0.605654 -0.00303145 0.0 
0.560771 -0.0380196 0.0 
0.680731 -0.00744387 0.0 
0.643474 -0.00295127 0.0 
0.626611 -0.00454233 0.0 
0.914101 -0.00206501 0.0 
0.619861 -0.0161808 0.0 
0.631827 -0.00673661 0.0 
0.493702 -0.0279527 0.0 
0.533496 -0.00960584 0.0 
0.644503 -0.00536588 0.0 
0.476969 -0.0342656 0.0 
0.572686 -0.0370776 0.0 
0.745014 -0.0094168 0.0 
0.599725 -0.00543745 0.0 
0.669745 -0.0048368 0.0 
0.622161 -0.0258605 0.0 
0.499699 0.0132182 0.0 
0.640637 -0.0208907 0.0 
0.596232 -0.0357545 0.0 
0.464506 -0.0167651 0.0 
0.767696 -0.007739 0.0 
0.576315 -0.00451177 0.0 
0.680744 -0.00247339 0.0 
0.545429 -0.0377611 0.0 
0.462822 -0.0339851 0.0 
0.786871 -0.0201023 0.0 
0.681829 -0.0050744 0.0 
0.619285 -0.00520213 0.0 
0.52966 -0.038551 0.0 
0.68705 -0.00181388 0.0 
0.496199 -0.0387336 0.0 
0.517704 0.00960061 0.0 
0.658189 -0.00912589 0.0 
0.471326 -0.0377162 0.0 
0.483606 -0.0381507 0.0 
0.513536 -0.0367747 0.0 
0.71228 -0.00131617 0.0 
0.921704 -0.00264528 0.0 
0.689625 -0.00452011 0.0 
0.661156 -0.00186661 0.0 
0.695477 -0.00635485 0.0 
0.843362 -0.00730172 0.0 
0.682788 -0.00133381 0.0 
0.955259 -0.00261052 0.0 
0.706861 -0.00421032 0.0 
0.495285 -0.0267526 0.0 
0.496063 -0.0365348 0.0 
0.584803 -0.0377928 0.0 
0.582088 -0.0395085 0.0 
0.827708 -0.0250757 0.0 
0.950655 -0.00221699 0.0 
0.755957 -0.0150707 0.0 
0.882818 -0.0116228 0.0 
0.436499 -0.0133436 0.0 
0.677956 -0.0367628 0.0 
0.883244 -0.00589564 0.0 
0.625654 -0.00551458 0.0 
0.540848 -0.0376546 0.0 
0.780215 -0.00859362 0.0 
0.748875 -0.00955155 0.0 
0.587348 -0.00218976 0.0 
0.724895 -0.0369011 0.0 
0.582543 -0.0331542 0.0 
0.794514 -0.0126945 0.0 
0.68748 -0.00860623 0.0 
0.54425 -0.0218095 0.0 
0.547086 -0.0394718 0.0 
0.479211 -0.021374 0.0 
0.389474 0.0217615 0.0 
0.498599 -0.00181349 0.0 
0.461119 -0.036117 0.0 
0.673569 -0.00168442 0.0 