<VTKFile type="UnstructuredGrid" version="0.1" byte_order="LittleEndian">
  <UnstructuredGrid>
    <Piece NumberOfPoints="16445" NumberOfCells="32442">
      <Points>
        <DataArray type = "Float64" NumberOfComponents="3" format="ascii">
0.999643 1.01145 0.0 
1.01797 0.987407 0.0 
0.99473 1.01277 0.0 
1.0093 0.997977 0.0 
0.989534 0.985332 0.0 
0.99895 1.01105 0.0 
1.01012 0.995506 0.0 
0.991964 0.985063 0.0 
0.987743 1.02034 0.0 
1.01452 0.992429 0.0 
0.995546 1.01379 0.0 
1.02595 0.989281 0.0 
1.01543 0.986638 0.0 
1.01191 0.993781 0.0 
0.994959 0.986142 0.0 
1.01458 0.9929 0.0 
0.993897 0.984533 0.0 
0.995835 1.01268 0.0 
1.00902 0.998612 0.0 
1.01057 0.994758 0.0 
0.99424 1.02025 0.0 
1.00613 0.98765 0.0 
1.0088 1.00054 0.0 
1.00781 1.00038 0.0 
1.00782 0.998599 0.0 
1.00853 0.998303 0.0 
0.969701 1.00715 0.0 
0.99657 1.02681 0.0 
1.01539 0.992261 0.0 
1.00884 0.999785 0.0 
1.02067 0.989698 0.0 
1.01233 0.988518 0.0 
1.01054 0.993974 0.0 
1.00902 0.99468 0.0 
0.986981 1.02472 0.0 
1.0092 0.997076 0.0 
1.01041 0.993119 0.0 
1.01353 0.991679 0.0 
1.01137 0.99328 0.0 
1.01536 0.991489 0.0 
1.00855 0.997537 0.0 
1.00437 0.999789 0.0 
0.996056 1.02013 0.0 
0.993544 1.01276 0.0 
1.00761 0.999354 0.0 
0.995864 1.02333 0.0 
1.00987 0.994688 0.0 
0.99798 1.01104 0.0 
1.00848 0.999114 0.0 
1.01223 0.991532 0.0 
0.990927 1.02233 0.0 
1.01082 0.992112 0.0 
0.997695 1.01183 0.0 
1.00522 1.00964 0.0 
1.00786 0.997506 0.0 
1.00965 0.994 0.0 
0.99846 1.02306 0.0 
1.00555 1.00894 0.0 
1.02292 0.989201 0.0 
1.01359 0.992625 0.0 
1.00848 0.995234 0.0 
1.00075 1.01961 0.0 
0.998153 1.02151 0.0 
1.0082 0.996981 0.0 
0.996125 1.01124 0.0 
1.00818 0.995658 0.0 
1.00378 1.0099 0.0 
1.0082 1.00885 0.0 
1.00694 0.9963 0.0 
1.00217 1.01373 0.0 
1.02436 0.989348 0.0 
1.0084 0.999847 0.0 
0.988795 1.02605 0.0 
1.0084 1.009 0.0 
1.01651 0.991565 0.0 
1.03524 0.996463 0.0 
0.994688 1.02762 0.0 
0.99702 1.02248 0.0 
1.00864 0.996354 0.0 
1.00835 1.00047 0.0 
1.01451 0.991929 0.0 
1.00933 0.995224 0.0 
0.99104 0.99997 0.0 
0.992835 1.02591 0.0 
1.00135 1.01104 0.0 
1.01234 0.992979 0.0 
1.00841 0.992795 0.0 
1.00906 0.995712 0.0 
1.00993 0.991682 0.0 
1.01828 0.98981 0.0 
1.01474 0.991076 0.0 
1.01633 0.990592 0.0 
0.985171 1.00289 0.0 
1.01442 0.989099 0.0 
1.01225 0.990278 0.0 
1.0096 0.992589 0.0 
1.00634 1.00011 0.0 
0.990493 1.02758 0.0 
1.007 1.00023 0.0 
1.00063 1.0105 0.0 
1.00642 0.999087 0.0 
1.00612 1.01283 0.0 
1.00734 0.995489 0.0 
1.00937 0.993446 0.0 
1.01677 0.989266 0.0 
1.00594 0.995075 0.0 
0.99736 1.02402 0.0 
1.00712 1.01158 0.0 
0.974716 1.01767 0.0 
1.00668 0.999601 0.0 
1.00729 0.997074 0.0 
1.00011 1.02072 0.0 
1.00703 0.99881 0.0 
0.997787 1.0096 0.0 
0.994483 1.00148 0.0 
0.992705 1.02851 0.0 
1.00962 0.996278 0.0 
1.0087 0.994096 0.0 
0.999419 1.02195 0.0 
1.0111 0.991203 0.0 
1.00513 1.01624 0.0 
1.00731 0.997953 0.0 
1.04874 0.992265 0.0 
0.994854 1.02571 0.0 
1.00618 0.998617 0.0 
0.995173 1.01694 0.0 
1.00146 1.01567 0.0 
1.0079 0.992226 0.0 
0.99663 1.0134 0.0 
1.00812 0.994849 0.0 
1.02088 0.99394 0.0 
0.997218 1.00696 0.0 
1.00725 1.00804 0.0 
1.02045 0.991022 0.0 
1.00706 1.00876 0.0 
1.00265 1.01463 0.0 
1.02607 0.988297 0.0 
0.996508 1.01635 0.0 
1.00774 0.996313 0.0 
1.00689 0.994228 0.0 
1.0151 0.990137 0.0 
1.0075 0.999882 0.0 
1.00325 0.997807 0.0 
1.0055 0.998588 0.0 
1.00286 1.01163 0.0 
1.0136 0.990628 0.0 
1.00602 0.99709 0.0 
1.01118 0.998784 0.0 
1.02372 0.987951 0.0 
1.00667 0.99283 0.0 
1.00592 0.997892 0.0 
1.00521 0.995187 0.0 
1.00609 1.00007 0.0 
1.00744 1.00821 0.0 
1.00661 0.99688 0.0 
1.00484 1.00917 0.0 
1.0056 0.999983 0.0 
1.02896 0.988199 0.0 
1.00099 1.0127 0.0 
1.00606 0.994505 0.0 
1.0058 0.999319 0.0 
1.00588 1.00959 0.0 
1.00814 0.990872 0.0 
1.0211 0.988771 0.0 
1.00661 0.998163 0.0 
1.00237 1.01104 0.0 
1.0066 0.997541 0.0 
1.00552 0.994347 0.0 
1.00727 0.993372 0.0 
1.00667 0.994944 0.0 
1.01002 1.01017 0.0 
1.00633 1.00889 0.0 
1.0078 0.994113 0.0 
0.996161 1.01197 0.0 
1.00849 0.993427 0.0 
1.00705 0.991924 0.0 
1.00629 0.993761 0.0 
1.00007 1.01294 0.0 
1.00508 0.99922 0.0 
0.992416 1.01825 0.0 
1.00481 0.9985 0.0 
0.998371 1.01246 0.0 
1.00392 1.01046 0.0 
1.01287 0.99336 0.0 
1.00549 0.996541 0.0 
1.01787 0.990767 0.0 
1.00342 1.00806 0.0 
0.990933 1.01917 0.0 
1.00533 0.997306 0.0 
1.00571 0.995802 0.0 
1.00522 0.99798 0.0 
0.989354 1.02032 0.0 
1.00437 1.01175 0.0 
1.00486 0.999864 0.0 
0.993821 1.01748 0.0 
1.01866 0.991386 0.0 
1.00202 1.01045 0.0 
0.995338 1.01509 0.0 
0.998373 1.0081 0.0 
0.993944 1.01563 0.0 
1.009 0.991502 0.0 
0.997052 1.01109 0.0 
0.99528 1.01601 0.0 
1.00899 1.00946 0.0 
1.00204 1.00905 0.0 
0.990724 1.0254 0.0 
1.00647 0.995665 0.0 
0.99845 1.0117 0.0 
1.00473 1.00789 0.0 
1.00425 1.01653 0.0 
1.00981 1.01003 0.0 
1.00402 1.01752 0.0 
1.00598 1.0145 0.0 
0.999588 1.01951 0.0 
1.00604 1.01364 0.0 
1.04997 0.998003 0.0 
1.04666 0.999271 0.0 
1.0019 1.01291 0.0 
1.01042 0.996164 0.0 
1.02407 0.991386 0.0 
1.00425 1.015 0.0 
1.0088 0.992273 0.0 
1.03977 1.00053 0.0 
0.991805 1.02377 0.0 
1.00734 0.994703 0.0 
1.01025 0.990411 0.0 
1.02332 0.995216 0.0 
1.05052 0.999411 0.0 
1.00511 0.999902 0.0 
0.991149 1.01261 0.0 
1.0094 1.00975 0.0 
0.995108 1.01162 0.0 
1.0232 0.990083 0.0 
1.01126 0.994424 0.0 
1.05443 0.997703 0.0 
1.0053 0.989522 0.0 
1.01431 0.997095 0.0 
1.00269 1.01641 0.0 
1.00298 1.01028 0.0 
1.01275 1.00111 0.0 
1.00914 1.01215 0.0 
1.05205 0.996778 0.0 
0.999096 1.01758 0.0 
0.989563 1.02158 0.0 
1.01356 0.996879 0.0 
0.993177 1.01447 0.0 
0.998883 1.02052 0.0 
1.04767 0.999775 0.0 
1.05099 0.998608 0.0 
1.05224 0.999747 0.0 
1.00627 1.01026 0.0 
1.00637 1.00957 0.0 
1.05139 0.999474 0.0 
1.05546 0.997629 0.0 
1.00411 1.00808 0.0 
1.01492 0.99933 0.0 
1.0501 1.00082 0.0 
1.03814 0.993784 0.0 
1.04522 1.00136 0.0 
1.04331 0.998466 0.0 
0.973009 1.01542 0.0 
0.996842 1.0212 0.0 
1.01152 1.00095 0.0 
0.999797 1.01067 0.0 
1.00368 1.01574 0.0 
1.01494 1.00078 0.0 
1.0004 1.01122 0.0 
1.04699 1.00118 0.0 
1.05432 0.999302 0.0 
1.0066 1.01219 0.0 
1.03979 0.993333 0.0 
1.0068 1.0133 0.0 
1.05282 0.99967 0.0 
1.02879 0.989566 0.0 
1.05521 0.998334 0.0 
1.03932 0.991418 0.0 
0.96826 1.01059 0.0 
1.04117 0.992077 0.0 
1.03401 0.992517 0.0 
1.01334 1.0004 0.0 
1.0545 0.999896 0.0 
1.00299 1.01548 0.0 
1.03534 0.99283 0.0 
1.03684 0.993161 0.0 
1.05627 0.998289 0.0 
1.00969 0.999532 0.0 
1.00879 1.00931 0.0 
1.05329 1.00021 0.0 
1.00956 1.01148 0.0 
1.01184 0.998288 0.0 
1.01148 1.00022 0.0 
1.03004 0.991347 0.0 
1.02878 0.991929 0.0 
1.00587 1.011 0.0 
0.996868 1.01191 0.0 
0.997602 1.02018 0.0 
1.03094 0.990584 0.0 
1.03849 0.992153 0.0 
1.02753 0.991561 0.0 
1.02885 0.991302 0.0 
1.03036 0.991938 0.0 
1.03446 0.989881 0.0 
1.04216 0.992474 0.0 
1.00346 1.01221 0.0 
1.00132 1.01032 0.0 
1.02755 0.990959 0.0 
1.03145 0.991322 0.0 
0.999211 1.01013 0.0 
1.00683 1.01271 0.0 
1.02925 0.990239 0.0 
1.02559 0.991239 0.0 
1.01053 1.00081 0.0 
1.01283 0.996644 0.0 
1.02479 0.990761 0.0 
1.00828 1.01376 0.0 
1.00787 1.01169 0.0 
1.0033 1.01372 0.0 
1.02689 0.98975 0.0 
1.03301 0.991345 0.0 
0.996123 1.02485 0.0 
1.03435 0.991453 0.0 
1.00066 1.01593 0.0 
1.04116 0.991416 0.0 
1.01593 0.999555 0.0 
0.994112 1.02348 0.0 
1.04062 0.994112 0.0 
1.03838 0.992909 0.0 
1.00108 1.006 0.0 
1.04024 0.992604 0.0 
1.01174 0.995004 0.0 
1.00836 1.01222 0.0 
0.999111 1.00283 0.0 
1.00884 1.01267 0.0 
1.04159 0.993256 0.0 
1.00919 1.00961 0.0 
1.01957 0.990484 0.0 
1.00802 1.01035 0.0 
0.985016 1.02341 0.0 
1.03222 1.00163 0.0 
1.0257 0.999121 0.0 
0.998159 1.01812 0.0 
1.02128 1.00076 0.0 
1.05297 0.997989 0.0 
1.01957 0.994254 0.0 
1.03503 0.995574 0.0 
1.00268 1.00926 0.0 
0.998879 1.00222 0.0 
0.998399 1.01928 0.0 
1.03443 1.00212 0.0 
1.03348 0.991984 0.0 
1.00303 1.01731 0.0 
1.05508 0.999076 0.0 
1.00517 1.01141 0.0 
1.03113 0.99469 0.0 
1.05236 0.998965 0.0 
1.00463 1.01004 0.0 
0.983345 1.01521 0.0 
0.995459 1.0218 0.0 
1.05423 0.998569 0.0 
1.02363 0.994395 0.0 
0.996611 1.00846 0.0 
0.970803 1.01308 0.0 
1.02787 0.998098 0.0 
0.99778 1.0158 0.0 
1.01548 1.00142 0.0 
1.03171 0.993142 0.0 
1.03041 0.993709 0.0 
0.996725 1.01259 0.0 
1.03708 0.998701 0.0 
1.01772 0.999991 0.0 
1.02697 1.0017 0.0 
1.0135 1.0012 0.0 
0.991051 1.01748 0.0 
0.992568 1.01663 0.0 
1.00282 1.01296 0.0 
1.03652 1.00102 0.0 
1.00801 1.00869 0.0 
1.05578 0.998736 0.0 
1.0528 1.00032 0.0 
1.00782 1.00853 0.0 
1.03686 0.992466 0.0 
1.01733 0.997192 0.0 
1.03366 0.993137 0.0 
1.05337 0.999011 0.0 
1.02565 0.996883 0.0 
0.987492 1.01303 0.0 
0.994813 0.995098 0.0 
1.03368 1.00215 0.0 
0.991037 1.02082 0.0 
1.0051 1.00849 0.0 
1.03698 0.997669 0.0 
1.01009 1.00013 0.0 
1.03363 0.996026 0.0 
1.00965 1.01066 0.0 
1.00129 1.01758 0.0 
1.0232 0.997721 0.0 
1.00815 1.01298 0.0 
1.02683 0.998896 0.0 
1.0096 1.00989 0.0 
0.998933 1.00873 0.0 
0.9872 0.987561 0.0 
1.03687 0.991713 0.0 
1.02254 0.993831 0.0 
1.00445 1.01584 0.0 
1.0351 1.0021 0.0 
1.0194 0.998605 0.0 
1.02768 0.992077 0.0 
1.01798 0.993415 0.0 
1.01902 0.994887 0.0 
1.01664 0.992471 0.0 
1.01323 0.99914 0.0 
1.0267 0.993683 0.0 
1.00422 1.00507 0.0 
1.01666 0.993983 0.0 
1.01414 1.00058 0.0 
1.03903 0.994964 0.0 
0.993632 1.01888 0.0 
1.01922 0.997965 0.0 
0.994149 1.01402 0.0 
1.01379 0.998489 0.0 
1.0037 1.00453 0.0 
1.0305 0.998293 0.0 
1.0091 1.0133 0.0 
1.02055 1.00122 0.0 
1.03024 0.99536 0.0 
1.01977 0.991661 0.0 
1.03411 0.997651 0.0 
1.00091 1.00235 0.0 
1.00259 1.0062 0.0 
1.02041 0.999617 0.0 
1.03522 0.992029 0.0 
1.00763 1.00837 0.0 
1.00543 1.01261 0.0 
1.02029 0.99692 0.0 
0.997433 1.00255 0.0 
0.998783 1.01561 0.0 
1.05522 0.999689 0.0 
0.992488 1.01985 0.0 
1.03052 1.00118 0.0 
1.03568 1.00143 0.0 
1.02071 1.00187 0.0 
0.999255 1.0121 0.0 
1.03363 1.00151 0.0 
1.03836 0.995847 0.0 
1.02775 1.00148 0.0 
1.05641 0.999318 0.0 
1.02288 0.996057 0.0 
1.02682 1.00125 0.0 
1.00286 1.0087 0.0 
1.02556 0.998465 0.0 
1.01891 0.992137 0.0 
1.01246 0.995175 0.0 
1.03604 0.99969 0.0 
1.00843 1.01067 0.0 
[...]
<PointData>
  <DataArray type = "Float64" Name="Vitesse" NumberOfComponents="3" format="ascii">
0.802176 0.452073 0.0 
0.806341 -0.0655857 0.0 
0.821044 0.331139 0.0 
0.373401 0.0154059 0.0 
0.80706 0.00720259 0.0 
0.78662 0.433779 0.0 
0.675581 -0.0210346 0.0 
0.80377 -0.00394379 0.0 
0.910785 0.240576 0.0 
0.774718 -0.0466163 0.0 
0.840486 0.345699 0.0 
0.769329 -0.072067 0.0 
0.811229 -0.0637162 0.0 
0.755945 -0.039148 0.0 
0.795254 -0.017832 0.0 
0.761167 -0.042708 0.0 
0.803989 -0.013581 0.0 
0.819402 0.353007 0.0 
0.274513 0.018496 0.0 
0.723128 -0.0309558 0.0 
0.9271 0.302314 0.0 
0.809273 -0.058331 0.0 
0 0 0.0 
0 0 0.0 
0.278816 0.0193743 0.0 
0.326857 0.0177797 0.0 
0.880735 0.117745 0.0 
0.995055 0.282103 0.0 
0.772649 -0.0471821 0.0 
0.0955038 0.0122949 0.0 
0.786332 -0.0627619 0.0 
0.811723 -0.0598143 0.0 
0.76307 -0.0412086 0.0 
0.749643 -0.0392311 0.0 
0.941152 0.22809 0.0 
0.511608 0.00381967 0.0 
0.78974 -0.0495566 0.0 
0.794525 -0.0521303 0.0 
0.777559 -0.0452788 0.0 
0.787473 -0.051985 0.0 
0.451672 0.00931515 0.0 
0 0 0.0 
0.93603 0.322928 0.0 
0.822005 0.309905 0.0 
0.148531 0.0167281 0.0 
0.96586 0.300017 0.0 
0.737455 -0.0349192 0.0 
0.783425 0.406131 0.0 
0.192948 0.018535 0.0 
0.801769 -0.0542133 0.0 
0.933674 0.262815 0.0 
0.801994 -0.0540922 0.0 
0.80312 0.39683 0.0 
0.737557 0.590696 0.0 
0.467101 0.00758062 0.0 
0.771285 -0.0445299 0.0 
0.983306 0.323865 0.0 
0.621048 0.526251 0.0 
0.783048 -0.0676643 0.0 
0.777245 -0.0464162 0.0 
0.723431 -0.0339805 0.0 
0.973505 0.382105 0.0 
0.966708 0.33456 0.0 
0.542218 -0.00107204 0.0 
0.787826 0.359008 0.0 
0.697673 -0.0277137 0.0 
0.784904 0.597039 0.0 
0 0 0.0 
0.660581 -0.0244507 0.0 
0.895 0.493236 0.0 
0.77545 -0.0693414 0.0 
0.0810098 0.0119479 0.0 
0.953975 0.236421 0.0 
0 0 0.0 
0.779726 -0.0515118 0.0 
0.344542 -0.0263809 0.0 
0.988141 0.265913 0.0 
0.966555 0.315991 0.0 
0.616438 -0.0113447 0.0 
0 0 0.0 
0.785186 -0.0499401 0.0 
0.709915 -0.0289233 0.0 
0.705399 0.109297 0.0 
0.968239 0.2631 0.0 
0.805156 0.509331 0.0 
0.777741 -0.0456848 0.0 
0.804744 -0.0584151 0.0 
0.675328 -0.0221296 0.0 
0.808122 -0.0574282 0.0 
0.794388 -0.0601123 0.0 
0.795843 -0.0541439 0.0 
0.79425 -0.0563874 0.0 
0.787157 0.140335 0.0 
0.807991 -0.0596291 0.0 
0.808733 -0.0576487 0.0 
0.802316 -0.0551542 0.0 
0 0 0.0 
0.96869 0.241402 0.0 
0 0 0.0 
0.779784 0.490761 0.0 
0.18661 0.0182939 0.0 
0.957123 0.604319 0.0 
0.728287 -0.0385158 0.0 
0.789392 -0.0508057 0.0 
0.80228 -0.0607638 0.0 
0.774834 -0.0597136 0.0 
0.981958 0.307203 0.0 
0.882088 0.607502 0.0 
0.903745 0.159981 0.0 
0.0941408 0.0130194 0.0 
0.548516 -0.00322154 0.0 
0.978102 0.36208 0.0 
0.241789 0.0199787 0.0 
0.741814 0.400639 0.0 
0.615714 0.142735 0.0 
0.983288 0.250335 0.0 
0.607361 -0.00916079 0.0 
0.777644 -0.0483012 0.0 
0.982727 0.342567 0.0 
0.807338 -0.0567255 0.0 
1.00666 0.498648 0.0 
0.400141 0.0135071 0.0 
0.462865 -0.0828596 0.0 
0.977504 0.277895 0.0 
0.283076 0.0180121 0.0 
0.890417 0.329146 0.0 
0.9252 0.446816 0.0 
0.810046 -0.0619654 0.0 
0.835659 0.367924 0.0 
0.754295 -0.0432002 0.0 
0.650989 -0.0324266 0.0 
0.660327 0.363224 0.0 
0 0 0.0 
0.767228 -0.0562851 0.0 
0.320901 0.275076 0.0 
0.924116 0.48815 0.0 
0.781015 -0.0762553 0.0 
0.888804 0.352624 0.0 
0.640847 -0.0175646 0.0 
0.791321 -0.0591 0.0 
0.801964 -0.0573837 0.0 
0.0628773 0.00919853 0.0 
0.542851 -0.0326592 0.0 
0.294076 0.0159068 0.0 
0.846986 0.549345 0.0 
0.803672 -0.0562273 0.0 
0.577566 -0.0125441 0.0 
0.248365 0.0167179 0.0 
0.791265 -0.0729992 0.0 
0.809189 -0.0661073 0.0 
0.435874 0.00739075 0.0 
0.779687 -0.0672061 0.0 
0 0 0.0 
0 0 0.0 
0.592939 -0.0126776 0.0 
0.703966 0.580892 0.0 
0 0 0.0 
0.771469 -0.0821054 0.0 
0.85127 0.477832 0.0 
0.791123 -0.0640922 0.0 
0.134639 0.0169158 0.0 
0.691795 0.560573 0.0 
0.811603 -0.0616388 0.0 
0.792917 -0.0665418 0.0 
0.369543 0.0144298 0.0 
0.819351 0.543029 0.0 
0.485523 0.00328974 0.0 
0.798924 -0.0708447 0.0 
0.803989 -0.0617697 0.0 
0.77058 -0.0536913 0.0 
0 0 0.0 
0.506753 0.430779 0.0 
0.786639 -0.0539618 0.0 
0.804552 0.360248 0.0 
0.79614 -0.0550285 0.0 
0.810738 -0.0647928 0.0 
0.803156 -0.0665719 0.0 
0.846538 0.450691 0.0 
0.148478 0.0133896 0.0 
0.898064 0.289348 0.0 
0.322176 0.0119254 0.0 
0.821463 0.411114 0.0 
0.815532 0.597606 0.0 
0.761415 -0.0413452 0.0 
0.669887 -0.0349188 0.0 
0.78513 -0.0559645 0.0 
0.656551 0.565108 0.0 
0.904834 0.271442 0.0 
0.561342 -0.0146137 0.0 
0.736813 -0.0502361 0.0 
0.43263 0.00450579 0.0 
0.912737 0.254215 0.0 
0.879559 0.590472 0.0 
0 0 0.0 
0.892856 0.308924 0.0 
0.770648 -0.0529794 0.0 
0.792598 0.539227 0.0 
0.862549 0.338889 0.0 
0.69034 0.414967 0.0 
0.868017 0.315569 0.0 
0.810408 -0.0597826 0.0 
0.783564 0.381522 0.0 
0.877835 0.334756 0.0 
0 0 0.0 
0.734227 0.553074 0.0 
0.956208 0.251088 0.0 
0.731482 -0.043699 0.0 
0.802444 0.416919 0.0 
0.539238 0.481323 0.0 
0.990751 0.47927 0.0 
0 0 0.0 
0.999478 0.455453 0.0 
0.999983 0.557918 0.0 
0.958815 0.369458 0.0 
0.981557 0.582612 0.0 
0.130927 -0.0210449 0.0 
0.0925169 -0.011236 0.0 
0.869568 0.499629 0.0 
0.60551 -0.00888834 0.0 
0.734649 -0.0573886 0.0 
0.964906 0.513266 0.0 
0.807783 -0.0587691 0.0 
0.0655885 -0.00495544 0.0 
0.948385 0.264798 0.0 
0.771773 -0.0507215 0.0 
0.811398 -0.0589764 0.0 
0.538568 -0.0217961 0.0 
0.0578364 -0.00933526 0.0 
0 0 0.0 
0.826295 0.272794 0.0 
0 0 0.0 
0.797731 0.337461 0.0 
0.769808 -0.0641617 0.0 
0.73284 -0.0334153 0.0 
0.101861 -0.0250973 0.0 
0.806493 -0.0622447 0.0 
0.448574 0.00505116 0.0 
0.958293 0.456616 0.0 
0.797748 0.573658 0.0 
0 0 0.0 
0.856415 0.532493 0.0 
0.174267 -0.0340253 0.0 
0.927717 0.383186 0.0 
0.923804 0.253473 0.0 
0.4808 0.00338956 0.0 
0.849524 0.305213 0.0 
0.963256 0.35121 0.0 
0.0609086 -0.00750134 0.0 
0.0919548 -0.0159413 0.0 
0.0289549 -0.0059817 0.0 
0.761306 0.582296 0.0 
0.639562 0.514625 0.0 
0.0480898 -0.00859948 0.0 
0.0934237 -0.025243 0.0 
0.619604 0.542745 0.0 
0.188773 0.0115352 0.0 
0 0 0.0 
0.492661 -0.0543436 0.0 
0 0 0.0 
0.158814 -0.016846 0.0 
0.897901 0.149171 0.0 
0.952906 0.323871 0.0 
0 0 0.0 
0.77948 0.461811 0.0 
0.965943 0.486483 0.0 
0.0475599 0.00465186 0.0 
0.801182 0.476695 0.0 
0 0 0.0 
0.0279263 -0.00737824 0.0 
0.933935 0.617448 0.0 
0.502399 -0.0608057 0.0 
0.989818 0.602099 0.0 
0.0270424 -0.00600503 0.0 
0.750077 -0.0755395 0.0 
0.062246 -0.0169947 0.0 
0.607584 -0.0793107 0.0 
0.893099 0.123291 0.0 
0.557081 -0.0753497 0.0 
0.604257 -0.0612202 0.0 
0.0705605 0.00726546 0.0 
0 0 0.0 
0.947389 0.479005 0.0 
0.575107 -0.0601265 0.0 
0.542039 -0.0589255 0.0 
0.0506931 -0.0155628 0.0 
0.139861 0.0147077 0.0 
0 0 0.0 
0 0 0.0 
0.654933 0.413239 0.0 
0.314701 0.0151919 0.0 
0.0731926 0.0082007 0.0 
0.691205 -0.0657418 0.0 
0.67842 -0.0591617 0.0 
0.852181 0.618143 0.0 
0.803468 0.376471 0.0 
0.94803 0.340057 0.0 
0.710923 -0.0729126 0.0 
0.580086 -0.0710864 0.0 
0.702961 -0.0603531 0.0 
0.702235 -0.0643775 0.0 
0.664714 -0.0613776 0.0 
0.707264 -0.0839856 0.0 
0.525846 -0.0724091 0.0 
0.877441 0.5566 0.0 
0.780058 0.516093 0.0 
0.722763 -0.0647969 0.0 
0.680874 -0.0680907 0.0 
0.759426 0.445327 0.0 
0.963692 0.612708 0.0 
0.731734 -0.0724148 0.0 
0.728241 -0.060216 0.0 
0 0 0.0 
0.516157 0.00096544 0.0 
0.746773 -0.0624395 0.0 
1.0364 0.595686 0.0 
0.86511 0.582069 0.0 
0.916129 0.52114 0.0 
0.756678 -0.0712317 0.0 
0.667206 -0.070304 0.0 
0.979256 0.292232 0.0 
0.651224 -0.0713943 0.0 
0.918786 0.428077 0.0 
0.589901 -0.0820547 0.0 
0.167611 0.0102156 0.0 
0.956621 0.284629 0.0 
0.447635 -0.0536431 0.0 
0.540745 -0.0634319 0.0 
0.568499 0.501334 0.0 
0.538851 -0.0688095 0.0 
0.689331 -0.0241057 0.0 
0.913707 0.58187 0.0 
0.401655 0.331039 0.0 
0.948039 0.57711 0.0 
0.488218 -0.0635288 0.0 
0 0 0.0 
0.781167 -0.0584441 0.0 
0.590354 0.431672 0.0 
0.929781 0.217615 0.0 
0.0290935 -0.000710673 0.0 
0.201821 0.000113916 0.0 
0.926673 0.364357 0.0 
0.0774929 0.00379438 0.0 
0.103289 -0.0221066 0.0 
0.644805 -0.0284019 0.0 
0.407172 -0.0336388 0.0 
0.746722 0.570967 0.0 
0.369564 0.280704 0.0 
0.944221 0.357333 0.0 
0 0 0.0 
0.635296 -0.0653782 0.0 
0.978249 0.445844 0.0 
0.0291721 -0.00823847 0.0 
0.876502 0.613023 0.0 
0.502879 -0.0367722 0.0 
0.0628134 -0.0129266 0.0 
0.790928 0.608716 0.0 
0.873792 0.202269 0.0 
0.949704 0.306283 0.0 
0.0625033 -0.015672 0.0 
0.594443 -0.0301723 0.0 
0.713866 0.359683 0.0 
0.894372 0.136434 0.0 
0.273259 -0.00660259 0.0 
0.887354 0.377304 0.0 
0 0 0.0 
0.592678 -0.0522235 0.0 
0.572276 -0.0451316 0.0 
0.818954 0.372112 0.0 
0.184051 -0.0130176 0.0 
0.130836 0.00762354 0.0 
0.0267252 0.000645494 0.0 
0 0 0.0 
0.886808 0.275237 0.0 
0.878918 0.294662 0.0 
0.887044 0.523631 0.0 
0.0515449 -0.00287744 0.0 
0 0 0.0 
0.0360266 -0.0108084 0.0 
0 0 0.0 
0 0 0.0 
0.579774 -0.065801 0.0 
0.413912 0.00236815 0.0 
0.574346 -0.0548318 0.0 
0.0510139 -0.0118018 0.0 
0.384233 -0.0107551 0.0 
0.843912 0.230979 0.0 
0.706954 -0.00556762 0.0 
0 0 0.0 
0.920792 0.268432 0.0 
0.591745 0.514301 0.0 
0.250716 -0.0192556 0.0 
0.0680565 0.00912753 0.0 
0.387893 -0.0279953 0.0 
0.346889 0.228959 0.0 
0.95412 0.416122 0.0 
0.328059 -0.00223742 0.0 
0.99062 0.602611 0.0 
0.215843 -0.00208819 0.0 
0 0 0.0 
0.711006 0.437362 0.0 
0.804395 0.0234331 0.0 
0.617039 -0.0729772 0.0 
0.640992 -0.034833 0.0 
0.98436 0.497539 0.0 
0 0 0.0 
0.261226 0.00619186 0.0 
0.681955 -0.0562857 0.0 
0.708857 -0.0366712 0.0 
0.606922 -0.021436 0.0 
0.757724 -0.0451912 0.0 
0.206536 0.0138174 0.0 
0.609314 -0.040639 0.0 
0 0 0.0 
0.693077 -0.0308389 0.0 
0.0598555 0.00578839 0.0 
0.41048 -0.0436607 0.0 
0.909197 0.301362 0.0 
0.324216 0.00436319 0.0 
0.842849 0.320912 0.0 
0.284342 0.0131036 0.0 
0 0 0.0 
0.245667 -0.00885777 0.0 
1.01015 0.583116 0.0 
0.0421632 0.00268818 0.0 
0.46442 -0.0294167 0.0 
0.756805 -0.0517359 0.0 
0.270666 -0.0165852 0.0 
0.174973 0.198698 0.0 
0.510763 0.483098 0.0 
0.167824 0.00599334 0.0 
0.617234 -0.0675273 0.0 
0 0 0.0 
0.933771 0.596612 0.0 
0.419407 -0.00326639 0.0 
0.487082 0.236059 0.0 
0.89221 0.396887 0.0 
0 0 0.0 
0.916063 0.285623 0.0 
0.0557686 -0.000707177 0.0 
0.0325269 -0.00152308 0.0 
0 0 0.0 
0.817784 0.436507 0.0 
0.0331154 -0.00112883 0.0 
0.359595 -0.0348663 0.0 
0.0396702 0.000474184 0.0 
0 0 0.0 
0.475058 -0.0137187 0.0 
0.0527577 0.000953248 0.0 
0.715244 0.575677 0.0 
0.254253 -0.00178558 0.0 
0.74981 -0.047999 0.0 
0.665717 -0.0198665 0.0 
0.128781 -0.00755439 0.0 
0.611845 0.431414 0.0 
0.170243 0.0159296 0.0 
0.823932 0.463858 0.0 
0.761002 -0.0485579 0.0 
0.822856 0.289733 0.0 
0.691079 -0.0737495 0.0 
0.416355 0.403512 0.0 
0.414591 -0.018839 0.0 
0.76868 0.561907 0.0 
0.287817 -0.0204986 0.0 
0.218175 -0.0182198 0.0 
0.92666 0.236629 0.0 
0.140603 0.0125267 0.0 
0.262186 0.00206101 0.0 
0.307299 -0.0136436 0.0 
0.862828 0.219235 0.0 
0.327643 -0.0218428 0.0 
0.597298 -0.034285 0.0 
0 0 0.0 
0.834815 0.281733 0.0 
0.717718 -0.030009 0.0 
0.305002 0.00587641 0.0 
0.760334 0.534913 0.0 
0.93701 0.432251 0.0 
0.128964 0.0102386 0.0 
0.369468 0.00128422 0.0 
0.742152 -0.0700667 0.0 
0.771269 0.510817 0.0 
0.471915 -0.0100027 0.0 
0.248146 0.00985246 0.0 
0.444362 -0.0244532 0.0 
0.705893 0.469179 0.0 
0.0349555 -0.00054223 0.0 
0.0632569 -0.00163265 0.0 
0.750032 -0.0389758 0.0 
0.201332 -0.00316424 0.0 
0.998162 0.521521 0.0 
0.0274469 -8.70447e-05 0.0 
0 0 0.0 
0.677594 -0.0511296 0.0 
0.277277 0.25265 0.0 
0.109708 -0.00370775 0.0 
0.612523 -0.0510292 0.0 
0.673959 -0.0418203 0.0 
1.0157 0.600312 0.0 
0.0532569 0.00350236 0.0 
0.516179 -0.0296578 0.0 
0.162918 -0.00561778 0.0 
0 0 0.0 
0 0 0.0 
0.524102 0.00228904 0.0 
0.519525 -0.00132132 0.0 
0.425437 -0.0826991 0.0 
0 0 0.0 
0 0 0.0 
0.0337188 0.00203392 0.0 
0.753709 0.252906 0.0 
0.912582 0.61536 0.0 
0.125167 -0.0179977 0.0 
0.319328 -0.00404999 0.0 
0.670591 -0.029574 0.0 
0 0 0.0 
0 0 0.0 
0.0896434 -0.00983486 0.0 
0.437983 0.38795 0.0 
0 0 0.0 
0.0694072 -0.00692555 0.0 
0.462351 -0.00240698 0.0 
0 0 0.0 
0.140468 0.00360886 0.0 
0 0 0.0 
0.644847 -0.0217561 0.0 
0.737488 0.42762 0.0 
0.297572 0.209318 0.0 
0.676581 -0.0226828 0.0 
0.662353 0.563409 0.0 
0.827768 0.570429 0.0 
0.378302 0.00302729 0.0 
0.417183 0.236626 0.0 
0.632692 -0.0400555 0.0 
0.103761 0.00222525 0.0 
0.54524 -0.0260865 0.0 
0 0 0.0 
0.161655 0.00208759 0.0 
0.518257 -0.0781762 0.0 
0.57885 -0.0758099 0.0 
0 0 0.0 
0.911246 0.355423 0.0 
0.824611 0.48833 0.0 
0.306709 0.00378186 0.0 
0.744179 -0.066091 0.0 
0.0390428 -0.00172965 0.0 
0 0 0.0 
1.04125 0.582444 0.0 
0.432009 -0.0172459 0.0 
0 0 0.0 
0.142602 0.00504807 0.0 
0.40357 -0.00903195 0.0 
0.284017 0.0145908 0.0 
0 0 0.0 
0.757172 0.587172 0.0 
0.948204 0.54007 0.0 
0.296064 0.313786 0.0 
0.626261 0.508209 0.0 
0 0 0.0 
0.0245788 -0.00596547 0.0 
0.543342 -0.00121912 0.0 
0.756947 0.54502 0.0 
0.861224 0.297922 0.0 
0.702586 0.535861 0.0 
0 0 0.0 
0.940882 0.248147 0.0 
0.431055 -0.0293505 0.0 
0.851457 0.580495 0.0 
0.511715 -0.00848808 0.0 
0.193806 0.00699813 0.0 
0.0503522 -0.00538625 0.0 
0.337193 0.248284 0.0 
0.505426 0.394906 0.0 
0.283056 0.00795248 0.0 
0.630132 0.547201 0.0 
0.57536 0.436668 0.0 
0.846114 0.605402 0.0 
0.0222021 -0.000828721 0.0 
0.612096 -0.0461606 0.0 
0 0 0.0 
0.203423 0.0127542 0.0 
0.331606 0.26292 0.0 
0.281511 -0.0258613 0.0 
0.439405 -0.00261341 0.0 
0.565074 0.380897 0.0 
0.486646 -0.0689821 0.0 
0.392372 -0.00334147 0.0 
0.951502 0.390813 0.0 
0 0 0.0 
0.259664 0.138188 0.0 
0.887398 0.436907 0.0 
0.141967 -0.00177037 0.0 
0.897662 0.208267 0.0 
0.468049 0.419792 0.0 
0.756767 0.290069 0.0 
0.78527 0.604421 0.0 
0.276066 0.0172323 0.0 
0.648921 -0.0753071 0.0 
0.740909 0.595607 0.0 
0.077403 -0.0013643 0.0 
0.605786 0.539657 0.0 
0.427116 0.00490598 0.0 
0.806037 0.299784 0.0 
0.113232 -0.0117331 0.0 
0.771846 0.251079 0.0 
0.358274 0.0147302 0.0 
0.75681 0.504382 0.0 
0.671991 0.547495 0.0 
0.763564 0.39139 0.0 
0.0845629 -0.00513455 0.0 
0.384195 0.0103782 0.0 
0.0326848 0.00136416 0.0 
0.840478 0.513589 0.0 
0.028655 -0.00264454 0.0 
0.470384 -0.0471874 0.0 
0.2689 0.275832 0.0 
0.148779 0.000340765 0.0 
0.328369 0.3387 0.0 
0.733613 0.457102 0.0 
0.987062 0.608398 0.0 
0.366311 -0.0228836 0.0 
0.731712 0.520098 0.0 
0 0 0.0 
0.44228 0.187324 0.0 
0.756747 0.474671 0.0 
0.036129 0.000292193 0.0 
0.565063 0.458165 0.0 
0.69631 -0.0281024 0.0 
0.479458 -0.0728836 0.0 
0.718442 0.31789 0.0 
0.903759 0.599926 0.0 
0.82437 0.388016 0.0 
0 0 0.0 
0.0917075 0.00722754 0.0 
0.592935 -0.0082422 0.0 
0.91529 0.183505 0.0 
0.442582 -0.0653839 0.0 
0.657782 0.422441 0.0 
0 0 0.0 
0.848377 0.387052 0.0 
0.549517 0.414781 0.0 
0.838629 0.403965 0.0 
0.61267 -0.094131 0.0 
0.0272263 -0.00294778 0.0 
0.938337 0.549059 0.0 
0.867804 0.280048 0.0 
0.903641 0.194726 0.0 
0 0 0.0 
0.932978 0.198998 0.0 
0 0 0.0 
0.575061 -0.0865809 0.0 
0.189059 -0.00604064 0.0 
0.63701 0.535002 0.0 
0.223149 0.0156361 0.0 
0.701594 0.557626 0.0 
0.934549 0.567743 0.0 
0.880621 0.216316 0.0 
0.356586 -0.0123794 0.0 
0.389364 0.383026 0.0 
0.443542 0.436256 0.0 
0.125032 -0.00883143 0.0 
0.0232178 -0.00138505 0.0 
0.631852 0.362611 0.0 
0.0492335 -0.00302549 0.0 
0.0264802 0.00125428 0.0 
0.158423 0.00897503 0.0 
0.590479 0.528368 0.0 
0.367708 -0.0172791 0.0 
0.595107 -0.0869909 0.0 
0.0254487 -0.00144051 0.0 
0.0346398 -0.00231854 0.0 
0.746695 0.379032 0.0 
0.883855 0.41502 0.0 
0.34588 -0.0689133 0.0 
0.241768 0.24255 0.0 
0.885068 0.24279 0.0 
0.568645 -0.00363661 0.0 
0.980563 0.24013 0.0 
0.906213 0.216521 0.0 
0.0402965 0.0028657 0.0 
0.585271 -0.0924555 0.0 
0.460858 0.362004 0.0 
0.802884 0.319359 0.0 
0.392641 0.394755 0.0 
0.896143 0.254666 0.0 
0.243266 0.245382 0.0 
0.632245 -0.0567699 0.0 
0.85567 0.164922 0.0 
0.811176 0.277052 0.0 
0.920398 0.548763 0.0 
0.87842 0.462669 0.0 
0.362442 0.369679 0.0 
0.643108 0.488949 0.0 
0.681382 0.447441 0.0 
0.677147 0.338538 0.0 
0 0 0.0 
0.455448 -0.0736975 0.0 
0.771023 0.300251 0.0 
0 0 0.0 
0.918566 0.155714 0.0 
0.303488 -0.0245316 0.0 
0.588992 0.488958 0.0 
0.698119 0.0727167 0.0 
0.801238 0.265957 0.0 
0.0886311 0.00624808 0.0 
0.241538 -0.00660614 0.0 
0.501882 0.471071 0.0 
0.278714 0.240477 0.0 
0.201202 -0.0445146 0.0 
0.910302 0.14917 0.0 
0 0 0.0 
0.675008 0.481144 0.0 
0.199732 0.209328 0.0 
0.83957 0.263537 0.0 
0.423266 0.40118 0.0 
0.761707 0.210966 0.0 
0.529899 -0.00812411 0.0 
0.846599 0.125656 0.0 
0.759711 -0.0995284 0.0 
0.736226 -0.0796739 0.0 
0.606584 0.472744 0.0 
0 0 0.0 
0.852152 0.244649 0.0 
0.413955 -0.038643 0.0 
0.145066 -0.032553 0.0 
0.869663 0.113617 0.0 
0 0 0.0 
0.647746 0.458058 0.0 
0.680531 0.145913 0.0 
0 0 0.0 
0.792389 0.288982 0.0 
0.735234 -0.0768704 0.0 
0.31152 -0.0534541 0.0 
0.79971 -0.0840436 0.0 
0.794763 0.16321 0.0 
0.544737 0.50267 0.0 
0.6955 0.000940665 0.0 
0.658155 0.0967615 0.0 
0.748202 -0.0986253 0.0 
0.829273 0.108413 0.0 
0.780372 0.0437819 0.0 
0.670069 0.118924 0.0 
0.491201 -0.0137853 0.0 
0.738573 0.0858557 0.0 
0.696114 0.0206422 0.0 
0.802741 -0.0829655 0.0 
0.64055 0.14601 0.0 
0.762086 0.0579321 0.0 
0.713783 0.159811 0.0 
0.627601 0.201925 0.0 
0.727366 -0.0153133 0.0 
0.776997 -0.114206 0.0 
0.731369 -0.110418 0.0 
0.626806 -0.0141566 0.0 
0.769337 -0.122493 0.0 
0.750566 0.334057 0.0 
0.806755 0.0392493 0.0 
0.782016 0.0323931 0.0 
0.79325 0.0949768 0.0 
0.719182 -0.0040043 0.0 
0 0 0.0 
0.784635 0.316504 0.0 
0.758331 -0.0821228 0.0 
0.795037 0.0498253 0.0 
0.786739 -0.102911 0.0 
0.673064 0.0950152 0.0 
0.594236 0.187805 0.0 
0.625907 0.184423 0.0 
0.786168 -0.104097 0.0 
0.741547 0.206118 0.0 
0.133519 -0.0149925 0.0 
0.627459 0.122242 0.0 
0.915893 0.225464 0.0 
0.697201 0.149573 0.0 
0.724602 0.0105864 0.0 
0.717461 -0.0382932 0.0 
0.782109 -0.109691 0.0 
0.759657 -0.133878 0.0 
0.748982 0.13918 0.0 
0.678508 -0.0717195 0.0 
0.78517 -0.0846615 0.0 
0.745288 0.0362962 0.0 
0.746322 0.0588052 0.0 
0.771809 -0.099706 0.0 
0.823553 0.117657 0.0 
0.886406 0.186938 0.0 
0.744761 0.26671 0.0 
0.725156 0.0877975 0.0 
0.799576 -0.0893284 0.0 
0.722896 0.0286779 0.0 
0.676073 0.162168 0.0 
0.775028 -0.117478 0.0 
0.649078 0.127831 0.0 
0.79689 -0.0867028 0.0 
0.941445 0.293473 0.0 
0.686527 0.130716 0.0 
0.603619 -0.0613326 0.0 
0.685438 0.0606356 0.0 
0.838363 0.134039 0.0 
0.724916 0.0515263 0.0 
0.75708 0.0321319 0.0 
0.793225 -0.0955084 0.0 
0.738209 0.0456299 0.0 
0.741315 0.00782693 0.0 
0.724476 0.380505 0.0 
0 0 0.0 
0.901046 0.233294 0.0 
0.849768 0.10484 0.0 
0.792319 -0.0882093 0.0 
0.753927 -0.129061 0.0 
0.764917 0.36457 0.0 
0.800109 -0.0800811 0.0 
0.77044 0.0349822 0.0 
0.728777 0.336591 0.0 
0.790136 -0.0499848 0.0 
0.480737 -0.0424907 0.0 
0.784124 0.151859 0.0 
0.733262 0.102226 0.0 
0.746797 0.315121 0.0 
0 0 0.0 
0.732976 -0.00352564 0.0 
0.459717 0.00681152 0.0 
0.682176 0.0810667 0.0 
0.29856 0.292557 0.0 
0.820822 0.0852439 0.0 
0.698429 0.0575685 0.0 
0.805254 0.105455 0.0 
0.653511 -0.101477 0.0 
0.658527 0.167205 0.0 
0.744449 0.0245448 0.0 
0.795323 0.0331389 0.0 
0.746965 -0.00627628 0.0 
0.749767 0.0762688 0.0 
0.789733 -0.0638112 0.0 
0.738429 -0.0136344 0.0 
0.768077 0.0242775 0.0 
0.398783 -0.00579799 0.0 
0.747857 -0.0179243 0.0 
0.198416 0.0127245 0.0 
0.169681 0.0164453 0.0 
0.786141 -0.0775728 0.0 
0.775942 -0.0798832 0.0 
0.755157 0.0157666 0.0 
0.644874 -0.0445083 0.0 
0.806201 0.130596 0.0 
0.765168 -0.0706599 0.0 
0.849112 0.284373 0.0 
0.861908 0.362023 0.0 
0.735358 -0.150797 0.0 
0.817109 0.106783 0.0 
0.0239781 -0.00388148 0.0 
0.820756 0.0976976 0.0 
0.772304 0.000269191 0.0 
0.734408 0.0340481 0.0 
0.7559 -0.0227502 0.0 
0.790114 0.0211518 0.0 
0.409376 -0.0173277 0.0 
0.844943 0.197739 0.0 
0.221688 -0.0295735 0.0 
0.771019 -0.0458761 0.0 
0.753343 -0.066248 0.0 
0.746778 -0.0311395 0.0 
0.794314 -0.09523 0.0 
0.640864 -0.169359 0.0 
0.745376 -0.10855 0.0 
0.791436 -0.0720332 0.0 
0.784882 -0.00456794 0.0 
0.768794 -0.0343989 0.0 
0.734098 -0.140865 0.0 
0.775575 -0.0677572 0.0 
0.644617 0.107505 0.0 
0.772015 -0.0583227 0.0 
0.79977 -0.0728644 0.0 
0.801649 -0.0645504 0.0 
0.750652 -0.0535129 0.0 
0.754298 -0.0548932 0.0 