<VTKFile type="UnstructuredGrid" version="0.1" byte_order="LittleEndian">
  <UnstructuredGrid>
    <Piece NumberOfPoints="16340" NumberOfCells="32229">
      <Points>
        <DataArray type = "Float64" NumberOfComponents="3" format="ascii">
1.27251 1.00059 0.0 
1.40442 0.965081 0.0 
1.26083 0.972955 0.0 
1.38681 0.96404 0.0 
1.25011 0.979863 0.0 
1.25973 0.977396 0.0 
1.28699 0.975669 0.0 
1.29086 0.987931 0.0 
1.48124 0.9678 0.0 
1.41225 0.973451 0.0 
1.29074 0.986477 0.0 
1.25338 0.976673 0.0 
1.35093 0.982932 0.0 
1.2444 1.00122 0.0 
1.25649 0.99565 0.0 
1.25316 1.00475 0.0 
1.26476 0.979296 0.0 
1.25476 0.97775 0.0 
1.27676 0.980136 0.0 
1.21812 0.98525 0.0 
1.38082 0.956877 0.0 
1.27171 0.976503 0.0 
1.30918 0.995797 0.0 
1.21256 0.995621 0.0 
1.29011 0.985196 0.0 
1.26613 0.975696 0.0 
1.26632 0.974661 0.0 
1.29789 0.978808 0.0 
1.37416 0.993376 0.0 
1.3947 0.964047 0.0 
1.40509 0.973111 0.0 
1.26536 0.997338 0.0 
1.31156 0.988409 0.0 
1.21515 0.980482 0.0 
1.3971 0.977819 0.0 
1.42698 0.980647 0.0 
1.30801 0.980714 0.0 
1.24728 0.992598 0.0 
1.27248 0.994818 0.0 
1.3442 0.968192 0.0 
1.30321 0.968053 0.0 
1.34739 0.996072 0.0 
1.30213 0.979058 0.0 
1.34956 0.964437 0.0 
1.28864 0.996894 0.0 
1.25196 0.980836 0.0 
1.41581 0.963897 0.0 
1.20375 0.987147 0.0 
1.47429 0.979827 0.0 
1.31344 0.974817 0.0 
1.4129 0.974462 0.0 
1.3329 0.999014 0.0 
1.23568 1.00823 0.0 
1.3374 0.993833 0.0 
1.20276 0.969191 0.0 
1.38208 0.997293 0.0 
1.3396 0.992773 0.0 
1.38239 0.968819 0.0 
1.51494 0.964837 0.0 
1.30409 0.985513 0.0 
1.42495 0.979321 0.0 
1.27893 0.977414 0.0 
1.26874 0.997703 0.0 
1.26265 0.998759 0.0 
1.25926 0.97935 0.0 
1.41946 0.97248 0.0 
1.28614 0.981456 0.0 
1.31306 0.973654 0.0 
1.24766 0.96707 0.0 
1.26156 0.980154 0.0 
1.34983 0.99487 0.0 
1.32935 0.988533 0.0 
1.32583 0.987815 0.0 
1.30308 0.967108 0.0 
1.32554 0.980609 0.0 
1.32927 0.97541 0.0 
1.27903 0.998136 0.0 
1.22529 1.00021 0.0 
1.36957 0.982184 0.0 
1.27647 0.990569 0.0 
1.29949 0.967595 0.0 
1.25516 1.00036 0.0 
1.2903 0.974911 0.0 
1.225 0.964996 0.0 
1.36823 0.981208 0.0 
1.28139 0.982402 0.0 
1.27661 1.00328 0.0 
1.37672 0.981134 0.0 
1.36057 0.996581 0.0 
1.21575 0.986115 0.0 
1.20239 0.977021 0.0 
1.27749 0.974175 0.0 
1.32413 0.977845 0.0 
1.30642 0.98182 0.0 
1.28949 0.971219 0.0 
1.26892 0.986602 0.0 
1.37205 0.970987 0.0 
1.36759 0.994191 0.0 
1.28084 0.971766 0.0 
1.27229 0.97976 0.0 
1.25884 1.0078 0.0 
1.32009 0.990847 0.0 
1.29983 0.97638 0.0 
1.34406 0.981705 0.0 
1.20601 0.966212 0.0 
1.22275 0.985558 0.0 
1.32892 0.968741 0.0 
1.28549 0.976495 0.0 
1.22039 1.01086 0.0 
1.37749 0.996086 0.0 
1.33482 0.97581 0.0 
1.20121 0.97502 0.0 
1.20336 0.994362 0.0 
1.32637 0.978543 0.0 
1.45627 0.979287 0.0 
1.22743 0.979738 0.0 
1.27191 0.973601 0.0 
1.20001 0.988108 0.0 
1.39131 0.965251 0.0 
1.28201 0.970771 0.0 
1.33617 0.969471 0.0 
1.33912 0.978185 0.0 
1.24144 0.978987 0.0 
1.20303 0.968283 0.0 
1.26873 0.976154 0.0 
1.36302 0.963531 0.0 
1.38906 0.978127 0.0 
1.21263 1.00995 0.0 
1.36632 0.977155 0.0 
1.24394 0.998212 0.0 
1.43222 0.976328 0.0 
1.25817 0.973805 0.0 
1.40385 0.980274 0.0 
1.27018 0.993549 0.0 
1.3345 0.976683 0.0 
1.30808 0.968039 0.0 
1.26769 0.969861 0.0 
1.46119 0.977518 0.0 
1.30333 0.980966 0.0 
1.30283 0.97445 0.0 
1.20406 1.00986 0.0 
1.29067 0.997975 0.0 
1.23976 0.992148 0.0 
1.27443 1.00414 0.0 
1.24973 1.00246 0.0 
1.34297 0.964685 0.0 
1.29642 0.985483 0.0 
1.24373 0.980142 0.0 
1.24673 0.968802 0.0 
1.44222 0.975724 0.0 
1.24891 1.00801 0.0 
1.20516 1.01061 0.0 
1.3055 1.00214 0.0 
1.32141 0.994065 0.0 
1.33198 0.977715 0.0 
1.30778 0.99346 0.0 
1.25147 1.00859 0.0 
1.35663 0.966927 0.0 
1.23179 0.984637 0.0 
1.45008 0.978667 0.0 
1.26254 0.978622 0.0 
1.51981 0.968253 0.0 
1.26925 1.00688 0.0 
1.25112 0.969242 0.0 
1.34963 0.973885 0.0 
1.30489 1.00387 0.0 
1.29646 0.980605 0.0 
1.27303 0.983137 0.0 
1.26931 1.00428 0.0 
1.43932 0.98105 0.0 
1.28013 0.976695 0.0 
1.25105 1.00729 0.0 
1.20648 1.01135 0.0 
1.23826 1.00032 0.0 
1.40096 0.964169 0.0 
1.28402 0.9962 0.0 
1.20429 0.979678 0.0 
1.21684 1.00393 0.0 
1.20925 1.00914 0.0 
1.43929 0.958477 0.0 
1.31793 0.966501 0.0 
1.27722 0.975044 0.0 
1.42268 0.976178 0.0 
1.24941 1.00048 0.0 
1.38894 0.983847 0.0 
1.35818 0.977299 0.0 
1.21099 1.00827 0.0 
1.21571 1.00919 0.0 
1.37467 0.98037 0.0 
1.24645 0.979459 0.0 
1.29403 0.97407 0.0 
1.4818 0.9843 0.0 
1.22451 0.992337 0.0 
1.41256 0.979651 0.0 
1.37414 0.964441 0.0 
1.28975 0.999092 0.0 
1.31861 0.982762 0.0 
1.41021 0.96824 0.0 
1.30788 0.996937 0.0 
1.27116 0.971795 0.0 
1.30809 0.973954 0.0 
1.31587 1.00135 0.0 
1.28725 0.967437 0.0 
1.24604 0.978389 0.0 
1.28227 1.00151 0.0 
1.20374 1.01039 0.0 
1.21937 0.989249 0.0 
1.32264 1.00207 0.0 
1.21049 1.00385 0.0 
1.24783 0.977183 0.0 
1.2866 0.974632 0.0 
1.26385 0.973483 0.0 
1.44633 0.968314 0.0 
1.34804 0.977368 0.0 
1.26269 0.972085 0.0 
1.49541 0.952777 0.0 
1.32444 0.971531 0.0 
1.5307 0.952092 0.0 
1.35025 0.971824 0.0 
1.29606 0.975244 0.0 
1.293 0.975873 0.0 
1.44296 0.965042 0.0 
1.25221 0.974094 0.0 
1.28462 0.971416 0.0 
1.26895 1.00103 0.0 
1.25414 0.979695 0.0 
1.31479 0.993707 0.0 
1.22763 0.988145 0.0 
1.27654 0.976964 0.0 
1.4401 0.977037 0.0 
1.29929 0.968397 0.0 
1.40799 0.986173 0.0 
1.46357 0.980607 0.0 
1.53187 0.954047 0.0 
1.27219 0.978619 0.0 
1.35058 0.96817 0.0 
1.38881 0.966417 0.0 
1.31222 0.972761 0.0 
1.24707 0.980497 0.0 
1.26606 0.980384 0.0 
1.45357 0.980245 0.0 
1.29469 0.970149 0.0 
1.42843 0.973101 0.0 
1.31877 0.969052 0.0 
1.20747 0.974496 0.0 
1.29242 0.977116 0.0 
1.24966 1.00476 0.0 
1.25646 0.975397 0.0 
1.28025 0.975575 0.0 
1.28498 1.00421 0.0 
1.30969 0.968656 0.0 
1.25218 1.00088 0.0 
1.27771 0.981199 0.0 
1.21281 1.00483 0.0 
1.25273 1.00375 0.0 
1.38645 0.969818 0.0 
1.21551 1.01107 0.0 
1.28913 0.968186 0.0 
1.21247 0.991168 0.0 
1.27351 0.97426 0.0 
1.35594 0.973673 0.0 
1.26576 0.972665 0.0 
1.2326 0.974445 0.0 
1.29409 0.998895 0.0 
1.22491 1.00886 0.0 
1.32939 0.970022 0.0 
1.23267 0.992558 0.0 
1.34052 0.966922 0.0 
1.46354 0.97846 0.0 
1.27985 0.973376 0.0 
1.35757 0.999506 0.0 
1.4727 0.957712 0.0 
1.47044 0.959632 0.0 
1.30018 0.96908 0.0 
1.34592 0.975039 0.0 
1.21884 1.00716 0.0 
1.3743 0.973713 0.0 
1.27204 0.977706 0.0 
1.44983 0.989187 0.0 
1.20174 0.966627 0.0 
1.30867 0.984451 0.0 
1.31714 1.00238 0.0 
1.36886 0.96708 0.0 
1.28665 0.97931 0.0 
1.20951 1.01093 0.0 
1.27975 0.970224 0.0 
1.19995 0.972324 0.0 
1.27061 0.987716 0.0 
1.25591 0.992654 0.0 
1.35233 0.965644 0.0 
1.32286 0.973279 0.0 
1.24925 0.973019 0.0 
1.32759 0.999308 0.0 
1.47136 0.97647 0.0 
1.34094 0.969901 0.0 
1.30083 0.971702 0.0 
1.25635 1.00486 0.0 
1.34878 0.966978 0.0 
1.32366 0.985763 0.0 
1.43045 0.975075 0.0 
1.50122 0.955293 0.0 
1.23659 1.00127 0.0 
1.21004 0.993695 0.0 
1.32219 0.999593 0.0 
1.25399 0.997708 0.0 
1.28917 0.976566 0.0 
1.43431 0.991344 0.0 
1.2199 0.987717 0.0 
1.20251 1.01077 0.0 
1.27539 0.977857 0.0 
1.28468 1.00278 0.0 
1.2169 0.983723 0.0 
1.22085 1.00861 0.0 
1.23076 0.985715 0.0 
1.36876 0.995217 0.0 
1.39143 0.973171 0.0 
1.3272 1.00038 0.0 
1.26751 0.973819 0.0 
1.40497 0.994003 0.0 
1.26149 0.974383 0.0 
1.52039 0.955433 0.0 
1.22157 1.00654 0.0 
1.23119 0.996532 0.0 
1.3787 0.97608 0.0 
1.49369 0.970374 0.0 
1.55146 0.964088 0.0 
1.26571 0.988822 0.0 
1.40688 0.978635 0.0 
1.27823 0.968306 0.0 
1.32752 0.966361 0.0 
1.21566 1.00018 0.0 
1.26998 0.99011 0.0 
1.2528 1.00789 0.0 
1.25433 1.00837 0.0 
1.38096 0.978201 0.0 
1.27509 0.971324 0.0 
1.26024 0.988009 0.0 
1.29464 0.968858 0.0 
1.20897 1.00987 0.0 
1.24009 0.966665 0.0 
1.39543 0.971985 0.0 
1.25437 1.00646 0.0 
1.23252 1.00623 0.0 
1.42323 0.977208 0.0 
1.32583 1.00273 0.0 
1.2458 0.989354 0.0 
1.25435 0.985694 0.0 
1.45921 0.961862 0.0 
1.35517 0.976135 0.0 
1.26594 0.971642 0.0 
1.30601 0.968501 0.0 
1.20994 1.01043 0.0 
1.24275 0.995509 0.0 
1.36159 0.97409 0.0 
1.34515 0.978616 0.0 
1.36206 0.975808 0.0 
1.30502 0.97798 0.0 
1.21095 1.00202 0.0 
1.22176 0.994872 0.0 
1.20899 1.00017 0.0 
1.28567 0.999877 0.0 
1.51411 0.952857 0.0 
1.39744 0.973166 0.0 
1.35477 0.995815 0.0 
1.33354 0.987226 0.0 
1.41808 0.968544 0.0 
1.48424 0.978833 0.0 
1.50657 0.95144 0.0 
1.35349 0.993867 0.0 
1.50699 0.972919 0.0 
1.27284 0.996576 0.0 
1.39057 0.989928 0.0 
1.27859 0.969383 0.0 
1.21987 1.00563 0.0 
1.28425 0.970207 0.0 
1.24375 0.977793 0.0 
1.20494 0.974083 0.0 
1.30049 0.971042 0.0 
1.41728 0.981616 0.0 
1.31253 0.982234 0.0 
1.37015 0.989798 0.0 
1.24188 1.00356 0.0 
1.2268 0.999105 0.0 
1.30549 0.982872 0.0 
1.23626 1.00606 0.0 
1.33795 0.981066 0.0 
1.3179 0.975368 0.0 
1.28587 0.980506 0.0 
1.23319 1.00544 0.0 
1.34224 0.994833 0.0 
1.20588 1.00967 0.0 
1.36869 0.974324 0.0 
1.21667 0.982603 0.0 
1.25978 1.00444 0.0 
1.24231 0.997271 0.0 
1.42441 0.963941 0.0 
1.22326 0.996076 0.0 
1.34634 0.998334 0.0 
1.4026 0.967998 0.0 
1.36239 0.993284 0.0 
1.39385 0.976344 0.0 
1.36174 0.97033 0.0 
1.44554 0.97983 0.0 
1.46581 0.985436 0.0 
1.47844 0.958912 0.0 
1.36459 0.971428 0.0 
1.29783 0.969762 0.0 
1.22518 1.00704 0.0 
1.55727 0.971719 0.0 
1.2902 0.973759 0.0 
1.20893 0.973685 0.0 
1.39839 0.979277 0.0 
1.39111 0.99105 0.0 
1.35288 0.992856 0.0 
1.46336 0.960427 0.0 
1.41359 0.97629 0.0 
1.34204 0.974042 0.0 
1.30819 1.00305 0.0 
1.37199 0.965731 0.0 
1.24753 0.975041 0.0 
1.47959 0.969923 0.0 
1.27809 0.996733 0.0 
1.37187 0.977618 0.0 
1.2372 0.98584 0.0 
1.23657 0.994422 0.0 
1.25835 1.00551 0.0 
1.21108 0.998957 0.0 
1.26857 1.00027 0.0 
1.40844 0.983532 0.0 
1.30483 0.979914 0.0 
1.2053 0.977005 0.0 
1.26889 0.979318 0.0 
1.2545 0.97243 0.0 
1.23704 0.975663 0.0 
1.21012 1.00107 0.0 
1.29712 0.967914 0.0 
1.21371 1.00556 0.0 
1.2997 0.983443 0.0 
1.42045 0.992614 0.0 
1.28544 0.977244 0.0 
1.2952 0.967345 0.0 
1.22555 0.98802 0.0 
1.41191 0.975692 0.0 
1.33471 0.989501 0.0 
1.34216 0.991716 0.0 
1.30414 0.975842 0.0 
1.25915 0.978268 0.0 
1.31314 0.979804 0.0 
1.45147 0.957736 0.0 
1.26948 0.975263 0.0 
[...]
<PointData>
  <DataArray type = "Float64" Name="Vitesse" NumberOfComponents="3" format="ascii">
0.312287 0.0776581 0.0 
0.646909 -0.0174791 0.0 
0.58768 0.0843033 0.0 
0.642895 -0.0153312 0.0 
0.433858 0.100875 0.0 
0.473453 0.0976793 0.0 
0.423586 0.0789165 0.0 
0.301663 0.089533 0.0 
0.69215 0.000480858 0.0 
0.514823 -0.0334034 0.0 
0.300712 0.0910834 0.0 
0.507188 0.0962941 0.0 
0.364993 -0.0219755 0.0 
0.180904 0.0571771 0.0 
0.233555 0.0978454 0.0 
0.245666 0.0534698 0.0 
0.416158 0.101992 0.0 
0.476734 0.0987608 0.0 
0.367898 0.0996377 0.0 
0.273718 0.0172051 0.0 
0.829088 -0.00913193 0.0 
0.457804 0.0911739 0.0 
0.407304 0.0327366 0.0 
0.0748177 -0.0547449 0.0 
0.302417 0.0925418 0.0 
0.496675 0.0906859 0.0 
0.523171 0.0871617 0.0 
0.340356 0.0758927 0.0 
0.483443 -0.0541325 0.0 
0.654993 -0.0159665 0.0 
0.504017 -0.0343298 0.0 
0.26418 0.0950064 0.0 
0.336914 0.04618 0.0 
0.376475 0.0214596 0.0 
0.444072 -0.0446444 0.0 
0.473044 -0.039041 0.0 
0.315755 0.0613952 0.0 
0.22621 0.093895 0.0 
0.281238 0.0997984 0.0 
0.49052 0.00349783 0.0 
0.576952 0.0390757 0.0 
0.502818 -0.0354602 0.0 
0.331235 0.0703603 0.0 
0.603721 -0.00142265 0.0 
0.348013 0.0714266 0.0 
0.409236 0.103378 0.0 
0.692882 -0.0138445 0.0 
0.171635 -0.0694141 0.0 
0.525969 -0.00926327 0.0 
0.371394 0.0474395 0.0 
0.504282 -0.0352936 0.0 
0.525234 -0.0216264 0.0 
0.196184 -0.00336366 0.0 
0.452084 -0.017791 0.0 
0.690643 0.0266053 0.0 
0.542102 -0.0562824 0.0 
0.441078 -0.0194216 0.0 
0.521931 -0.0227696 0.0 
0.742304 0.00612592 0.0 
0.310455 0.0669565 0.0 
0.479674 -0.0384739 0.0 
0.412959 0.09046 0.0 
0.278272 0.0924709 0.0 
0.257825 0.0894054 0.0 
0.428723 0.102585 0.0 
0.542159 -0.0291012 0.0 
0.330176 0.0947183 0.0 
0.393544 0.0460706 0.0 
0.78212 0.0774505 0.0 
0.406063 0.104436 0.0 
0.487002 -0.0366108 0.0 
0.371938 0.00710346 0.0 
0.358668 0.0158043 0.0 
0.608337 0.0358332 0.0 
0.323756 0.0266344 0.0 
0.352741 0.0229731 0.0 
0.321203 0.081712 0.0 
0.0938437 -0.00518109 0.0 
0.390551 -0.0415757 0.0 
0.285231 0.105701 0.0 
0.60505 0.0398367 0.0 
0.229993 0.0785342 0.0 
0.429463 0.0737539 0.0 
0.868377 0.0768944 0.0 
0.386886 -0.038882 0.0 
0.327541 0.100729 0.0 
0.361987 0.0598761 0.0 
0.399903 -0.0445535 0.0 
0.524975 -0.0481372 0.0 
0.246494 0.0025567 0.0 
0.408154 -0.0210719 0.0 
0.495393 0.0796374 0.0 
0.331445 0.0310873 0.0 
0.311626 0.0644247 0.0 
0.530611 0.0604344 0.0 
0.298707 0.113156 0.0 
0.461676 -0.0224283 0.0 
0.491743 -0.0507757 0.0 
0.549068 0.0681813 0.0 
0.386449 0.100996 0.0 
0.326058 0.0391305 0.0 
0.377444 0.022058 0.0 
0.371668 0.0685878 0.0 
0.349948 -0.00930176 0.0 
0.819642 0.0470841 0.0 
0.282133 0.0364506 0.0 
0.487589 0.0186574 0.0 
0.410763 0.082825 0.0 
0.233297 -0.0648361 0.0 
0.52308 -0.0555079 0.0 
0.351256 0.0137662 0.0 
0.462849 -0.0142087 0.0 
0.0488692 -0.107002 0.0 
0.328923 0.0266385 0.0 
0.516721 -0.0196442 0.0 
0.432751 0.0669146 0.0 
0.531891 0.0806271 0.0 
0.133609 -0.0974808 0.0 
0.619215 -0.0177445 0.0 
0.573442 0.0634978 0.0 
0.460282 0.0120959 0.0 
0.342537 0.00419551 0.0 
0.463312 0.0936313 0.0 
0.72883 0.031614 0.0 
0.476441 0.0911949 0.0 
0.633386 -0.00818708 0.0 
0.427175 -0.0443342 0.0 
0.194186 -0.0938308 0.0 
0.389356 -0.0303621 0.0 
0.181836 0.0694095 0.0 
0.517798 -0.0301853 0.0 
0.571945 0.0880484 0.0 
0.442882 -0.0481019 0.0 
0.272901 0.104989 0.0 
0.344707 0.013675 0.0 
0.560772 0.0354692 0.0 
0.652977 0.0699032 0.0 
0.539842 -0.0148861 0.0 
0.31577 0.0698651 0.0 
0.400805 0.0601564 0.0 
0.215811 -0.1233 0.0 
0.366533 0.063553 0.0 
0.213381 0.0783299 0.0 
0.361341 0.0572712 0.0 
0.21064 0.061373 0.0 
0.599667 0.00265833 0.0 
0.304271 0.0819616 0.0 
0.433418 0.0963797 0.0 
0.737919 0.0813696 0.0 
0.538984 -0.0238556 0.0 
0.267255 0.0281098 0.0 
0.249476 -0.116904 0.0 
0.48877 0.016528 0.0 
0.419527 0.0115778 0.0 
0.336565 0.0171125 0.0 
0.375313 0.0428635 0.0 
0.29547 0.0281208 0.0 
0.528743 -0.00635324 0.0 
0.323301 0.0703453 0.0 
0.516502 -0.0228529 0.0 
0.436913 0.100554 0.0 
0.686846 0.00739289 0.0 
0.375369 0.0443764 0.0 
0.716487 0.0798014 0.0 
0.384946 -0.00622975 0.0 
0.518082 0.00995585 0.0 
0.32371 0.080538 0.0 
0.331968 0.107913 0.0 
0.333814 0.0603414 0.0 
0.484707 -0.0320899 0.0 
0.42438 0.0873089 0.0 
0.267024 0.0354686 0.0 
0.285334 -0.10983 0.0 
0.152394 0.0448445 0.0 
0.662339 -0.0160623 0.0 
0.325355 0.0819243 0.0 
0.345481 -0.0269166 0.0 
0.0581412 -0.0650443 0.0 
0.163922 -0.108305 0.0 
0.830339 -0.00328698 0.0 
0.582367 0.0235938 0.0 
0.473906 0.0830838 0.0 
0.503918 -0.0345958 0.0 
0.203583 0.070351 0.0 
0.419026 -0.0529299 0.0 
0.374138 -0.0222933 0.0 
0.12852 -0.102405 0.0 
0.161514 -0.082319 0.0 
0.396681 -0.0421053 0.0 
0.44799 0.0981244 0.0 
0.436479 0.0677652 0.0 
0.497055 -0.00759085 0.0 
0.166058 0.0226848 0.0 
0.459132 -0.0448285 0.0 
0.61541 -0.0129019 0.0 
0.374988 0.0605945 0.0 
0.319012 0.0387856 0.0 
0.592021 -0.0229227 0.0 
0.418027 0.0317826 0.0 
0.585407 0.0743576 0.0 
0.397525 0.0529456 0.0 
0.516036 -3.36202e-05 0.0 
0.654654 0.0473293 0.0 
0.475154 0.0967535 0.0 
0.369248 0.0620231 0.0 
0.244254 -0.122066 0.0 
0.19843 0.00903299 0.0 
0.552752 -0.0144323 0.0 
0.036255 -0.0996954 0.0 
0.503671 0.0959606 0.0 
0.449209 0.0755466 0.0 
0.56335 0.0844121 0.0 
0.653457 -0.0115686 0.0 
0.357475 -0.00892104 0.0 
0.606161 0.0805248 0.0 
0.916816 0.00288704 0.0 
0.420809 0.0276292 0.0 
0.913738 0.00228914 0.0 
0.41378 -0.00450769 0.0 
0.403296 0.0696879 0.0 
0.399635 0.0745572 0.0 
0.708662 -0.00851849 0.0 
0.579107 0.0906707 0.0 
0.544177 0.0643632 0.0 
0.298665 0.0778197 0.0 
0.431208 0.102379 0.0 
0.397575 0.0265773 0.0 
0.244385 0.0487079 0.0 
0.430668 0.0903309 0.0 
0.521374 -0.0268117 0.0 
0.579865 0.0428725 0.0 
0.438982 -0.0536877 0.0 
0.51099 -0.0161744 0.0 
0.892132 0.00293019 0.0 
0.408961 0.0977925 0.0 
0.492431 -0.00216994 0.0 
0.586779 -0.0196583 0.0 
0.414699 0.0452366 0.0 
0.422661 0.099548 0.0 
0.390701 0.104598 0.0 
0.505476 -0.0222455 0.0 
0.542334 0.0526045 0.0 
0.550547 -0.0266891 0.0 
0.497845 0.0295174 0.0 
0.516712 0.0165857 0.0 
0.377504 0.0787101 0.0 
0.225676 0.0485584 0.0 
0.533507 0.0929731 0.0 
0.449723 0.0832416 0.0 
0.422274 0.0437794 0.0 
0.535905 0.0362062 0.0 
0.217433 0.0727225 0.0 
0.349069 0.101533 0.0 
0.0534295 -0.0895609 0.0 
0.23451 0.0587222 0.0 
0.511414 -0.0260651 0.0 
0.243455 -0.0821719 0.0 
0.624557 0.0488207 0.0 
0.137957 -0.0358536 0.0 
0.508278 0.0822434 0.0 
0.396529 -0.0134951 0.0 
0.579753 0.080684 0.0 
0.58881 0.0836057 0.0 
0.391015 0.0531535 0.0 
0.166843 -0.0437357 0.0 
0.451364 0.0200043 0.0 
0.189335 0.0551094 0.0 
0.529263 0.00619053 0.0 
0.531825 -0.0143474 0.0 
0.507852 0.0751633 0.0 
0.573757 -0.0482013 0.0 
0.855022 0.00214008 0.0 
0.824645 0.00153127 0.0 
0.554916 0.0447903 0.0 
0.368899 -0.0025409 0.0 
0.106912 -0.0654722 0.0 
0.430047 -0.0294425 0.0 
0.429049 0.0950163 0.0 
0.464381 -0.0312356 0.0 
0.791355 0.0339657 0.0 
0.312567 0.0584436 0.0 
0.539628 -0.00600668 0.0 
0.537098 -0.0140068 0.0 
0.356248 0.090108 0.0 
0.250748 -0.102357 0.0 
0.598551 0.0628516 0.0 
0.549712 -0.00232237 0.0 
0.289985 0.112555 0.0 
0.244093 0.105001 0.0 
0.565053 -0.00300797 0.0 
0.386527 0.0315015 0.0 
0.615103 0.088847 0.0 
0.516987 -0.0141793 0.0 
0.560239 -0.00852922 0.0 
0.448769 0.00695519 0.0 
0.474526 0.0535999 0.0 
0.265417 0.0558797 0.0 
0.524871 -0.000505664 0.0 
0.339132 0.0239688 0.0 
0.52896 -0.02908 0.0 
0.886318 0.00354606 0.0 
0.143444 0.0352894 0.0 
0.0884242 -0.0615503 0.0 
0.506011 -0.00563372 0.0 
0.222163 0.0885299 0.0 
0.397516 0.0801464 0.0 
0.464714 -0.0421275 0.0 
0.228965 0.0169921 0.0 
0.271403 -0.123708 0.0 
0.414999 0.0938472 0.0 
0.398415 0.0518701 0.0 
0.303479 0.0169989 0.0 
0.148967 -0.059888 0.0 
0.298865 0.065266 0.0 
0.507822 -0.0520694 0.0 
0.472994 -0.0345572 0.0 
0.53504 -0.01649 0.0 
0.541778 0.0837126 0.0 
0.489078 -0.0554979 0.0 
0.546257 0.0883845 0.0 
0.879348 0.00359711 0.0 
0.103208 -0.0506586 0.0 
0.14202 0.0362058 0.0 
0.419046 -0.0366909 0.0 
0.655372 0.00275496 0.0 
0.740664 0.00660524 0.0 
0.280851 0.113652 0.0 
0.456172 -0.0448298 0.0 
0.661066 0.0567706 0.0 
0.564993 0.0158666 0.0 
0.0508591 -0.0562163 0.0 
0.277425 0.111369 0.0 
0.288828 0.0341427 0.0 
0.308862 0.0325106 0.0 
0.412398 -0.0417158 0.0 
0.584154 0.0701624 0.0 
0.285367 0.112963 0.0 
0.582552 0.0476822 0.0 
0.198612 -0.107186 0.0 
0.806683 0.0805119 0.0 
0.497201 -0.0323767 0.0 
0.274014 0.0446656 0.0 
0.146578 -0.00341315 0.0 
0.49472 -0.0360408 0.0 
0.575705 -0.0212881 0.0 
0.259349 0.0969266 0.0 
0.315738 0.109734 0.0 
0.781566 -0.00148647 0.0 
0.374721 -0.0164187 0.0 
0.608115 0.0771704 0.0 
0.552938 0.0385726 0.0 
0.223102 -0.102291 0.0 
0.191095 0.0764654 0.0 
0.401275 -0.0204104 0.0 
0.349606 -0.00632551 0.0 
0.388471 -0.0239006 0.0 
0.33915 0.0645174 0.0 
0.0285626 -0.0913961 0.0 
0.122457 -0.000167739 0.0 
0.0233121 -0.0961493 0.0 
0.366172 0.0645079 0.0 
0.911106 0.00290558 0.0 
0.486372 -0.0351048 0.0 
0.507303 -0.0427114 0.0 
0.36712 0.00102393 0.0 
0.602286 -0.0216573 0.0 
0.54188 -0.00332339 0.0 
0.927787 0.00261739 0.0 
0.476238 -0.0395259 0.0 
0.619167 0.00601064 0.0 
0.288389 0.0939112 0.0 
0.450117 -0.0573605 0.0 
0.627861 0.0604526 0.0 
0.0846819 -0.0556925 0.0 
0.581435 0.0598367 0.0 
0.492788 0.0946917 0.0 
0.516868 0.00828752 0.0 
0.494511 0.0515393 0.0 
0.455335 -0.0454889 0.0 
0.313522 0.0520694 0.0 
0.438629 -0.0498166 0.0 
0.174746 0.0391943 0.0 
0.105818 0.00688528 0.0 
0.30943 0.0659498 0.0 
0.163783 0.00989873 0.0 
0.33956 0.00236932 0.0 
0.357612 0.0412382 0.0 
0.341805 0.093306 0.0 
0.141747 0.00295212 0.0 
0.475415 -0.0268285 0.0 
0.19893 -0.118323 0.0 
0.412775 -0.0267182 0.0 
0.329145 0.0201719 0.0 
0.280792 0.0602364 0.0 
0.17939 0.0692875 0.0 
0.705105 -0.0119862 0.0 
0.115081 0.00262849 0.0 
0.539326 -0.0372518 0.0 
0.580761 -0.0233854 0.0 
0.476028 -0.0471137 0.0 
0.447701 -0.0416444 0.0 
0.454359 -0.0142447 0.0 
0.500894 -0.0269071 0.0 
0.480949 -0.0183223 0.0 
0.837541 0.00258358 0.0 
0.440642 -0.0181703 0.0 
0.542192 0.0489118 0.0 
0.125454 -0.0362357 0.0 
0.623938 0.00956536 0.0 
0.457921 0.0697382 0.0 
0.55187 0.0266137 0.0 
0.438536 -0.0470959 0.0 
0.460014 -0.0573521 0.0 
0.461161 -0.0377201 0.0 
0.80872 0.000103013 0.0 
0.486607 -0.0386266 0.0 
0.375046 0.00399615 0.0 
0.516936 0.00749641 0.0 
0.576999 -0.0136104 0.0 
0.561942 0.0925039 0.0 
0.65766 -0.000924462 0.0 
0.30788 0.0882845 0.0 
0.397738 -0.0354816 0.0 
0.306798 0.0829591 0.0 
0.180179 0.0624994 0.0 
0.285092 0.0532912 0.0 
0.037841 -0.0783229 0.0 
0.291282 0.081548 0.0 
0.439433 -0.0511935 0.0 
0.321892 0.0666787 0.0 
0.425762 -0.00684008 0.0 
0.404339 0.100994 0.0 
0.61987 0.0858486 0.0 
0.55404 0.0878294 0.0 
0.0255577 -0.09275 0.0 
0.603452 0.0425359 0.0 
0.0652964 -0.0866402 0.0 
0.307329 0.0766971 0.0 
0.472377 -0.0499624 0.0 
0.395631 0.0852427 0.0 
0.62862 0.0416841 0.0 
0.24105 0.0407158 0.0 
0.489085 -0.0380361 0.0 
0.391896 -0.00527563 0.0 
0.431247 -0.0217331 0.0 
0.371309 0.06201 0.0 
0.453822 0.0999299 0.0 
0.31936 0.0516691 0.0 
0.84933 -0.000827749 0.0 
0.496299 0.0877841 0.0 
0.532666 0.0401483 0.0 
0.474142 0.0316958 0.0 
0.729265 0.0609063 0.0 
0.576227 0.00742377 0.0 
0.0677091 -0.0365559 0.0 
0.410902 -0.0458646 0.0 
0.346626 0.0593753 0.0 
0.754019 0.0615976 0.0 
0.57019 0.0556762 0.0 
0.475495 0.0655282 0.0 
0.516759 0.044108 0.0 
0.322612 0.045027 0.0 
0.0980885 -0.00773803 0.0 
0.494082 0.0844661 0.0 
0.257722 0.0297354 0.0 
0.421385 -0.0317283 0.0 
0.381928 -0.0297379 0.0 
0.931321 0.00241497 0.0 
0.223256 0.0306695 0.0 
0.347834 0.0721005 0.0 
0.545048 0.0145035 0.0 
0.354541 0.0523554 0.0 
0.386011 -0.0271975 0.0 
0.506552 0.0923362 0.0 
0.202825 0.00710063 0.0 
0.644816 -0.0111529 0.0 
0.677957 0.00243799 0.0 
0.326166 0.0717948 0.0 
0.32109 0.0398415 0.0 
0.162949 0.0150699 0.0 
0.445397 0.00827616 0.0 
0.208039 0.08262 0.0 
0.414165 -0.0334309 0.0 
0.516503 -0.0327814 0.0 
0.528774 -0.0216136 0.0 
0.384722 0.0512001 0.0 
0.419781 -0.0517486 0.0 
0.225999 0.0823327 0.0 
0.4495 0.100974 0.0 
0.598609 0.0600002 0.0 
0.0728084 -0.111639 0.0 
0.48128 0.0688018 0.0 
0.566242 0.0842603 0.0 
0.509261 0.0666944 0.0 
0.371211 0.107535 0.0 
0.426079 -0.0464386 0.0 
0.484093 -0.0231819 0.0 
0.37528 -0.0290938 0.0 
0.166067 -0.0285373 0.0 
0.555513 0.0769703 0.0 
0.608552 0.0171658 0.0 
0.0501012 -0.0574333 0.0 
0.194701 -0.0684235 0.0 
0.345993 -0.00203217 0.0 
0.471969 0.0489693 0.0 
0.295838 0.0838075 0.0 
0.276581 -0.118558 0.0 
0.357717 -0.00489654 0.0 
0.475956 0.0165257 0.0 
0.204571 -0.0993706 0.0 
0.416269 -0.0178079 0.0 
0.295106 0.0898296 0.0 
0.606961 0.0670018 0.0 
0.259414 0.101245 0.0 
0.542294 0.0746871 0.0 
0.441158 0.0595722 0.0 
0.453807 0.0435308 0.0 
0.77803 0.0818209 0.0 
0.555148 0.0915867 0.0 
0.389432 0.0482019 0.0 
0.0864563 -0.0316326 0.0 
0.456956 0.0173114 0.0 
0.387884 0.072238 0.0 
0.722257 0.0711014 0.0 
0.249473 0.0386118 0.0 
0.624164 0.0429906 0.0 
0.425077 -0.0250638 0.0 
0.338008 0.111007 0.0 
0.269539 0.0802239 0.0 
0.170737 0.05597 0.0 
0.394505 -0.0373213 0.0 
0.216699 0.091386 0.0 
0.372008 -0.0209062 0.0 
0.290406 0.104795 0.0 
0.751564 0.0729153 0.0 
0.0815278 -0.0824692 0.0 
0.38023 0.087255 0.0 
0.47519 0.0556161 0.0 
0.574021 -0.0131172 0.0 
0.311627 0.0991197 0.0 
0.20623 0.0581126 0.0 
0.459302 -0.0459286 0.0 
0.669027 0.0615219 0.0 
0.763949 0.0442933 0.0 
0.354949 0.0590788 0.0 
0.273606 -0.0178756 0.0 
0.324039 0.0770886 0.0 
0.637444 0.0841304 0.0 
0.495212 0.0712328 0.0 
0.464683 -0.0481729 0.0 
0.619483 0.0787443 0.0 
0.27402 0.0428606 0.0 
0.805627 0.0818582 0.0 
0.387292 0.0635836 0.0 
0.313218 0.000813956 0.0 
0.304866 0.0846432 0.0 
0.646038 0.0406642 0.0 
0.617403 0.0895769 0.0 
0.599596 -0.0108645 0.0 
0.508268 0.0503923 0.0 
0.449052 -0.00981138 0.0 
0.4704 0.0375214 0.0 
0.54095 0.0209503 0.0 
0.0924184 -0.0181657 0.0 
0.529843 0.0294682 0.0 
0.60061 0.032748 0.0 
0.721065 0.00711763 0.0 
0.47998 0.0477481 0.0 
0.443337 -0.0236244 0.0 
0.161361 0.0470996 0.0 
0.450353 0.0517626 0.0 
0.484128 0.0210298 0.0 
0.542235 -0.00335646 0.0 
0.300339 0.0977005 0.0 
0.337494 0.0371048 0.0 
0.598529 -0.0173775 0.0 
0.623377 -0.0196054 0.0 
0.364569 0.054633 0.0 
0.319808 0.0388957 0.0 
0.442625 0.0332515 0.0 
0.857813 0.0789828 0.0 
0.188582 -0.0322245 0.0 
0.57023 0.0735713 0.0 
0.643627 -0.000417557 0.0 
0.846185 0.00436824 0.0 
0.463357 -0.0124961 0.0 
0.460523 -0.015643 0.0 
0.500525 0.0274817 0.0 
0.551915 -0.0184595 0.0 
0.31627 0.0825291 0.0 
0.799205 0.0665029 0.0 
0.374821 0.104838 0.0 
0.728594 0.0680819 0.0 
0.640373 0.0312148 0.0 
0.349909 0.0182593 0.0 
0.254838 0.068221 0.0 
0.484125 -0.0240364 0.0 
0.599546 0.00569725 0.0 
0.0543488 -0.0597701 0.0 
0.506583 -0.0292994 0.0 
0.779659 0.064645 0.0 
0.552667 -0.0429594 0.0 
0.411331 -0.0219968 0.0 
0.67195 0.0398937 0.0 
0.580558 0.0871183 0.0 
0.518039 0.0327089 0.0 
0.699929 0.0671201 0.0 
0.307022 0.0924556 0.0 
0.330236 0.0434934 0.0 
0.642937 0.0880105 0.0 
0.230529 -0.108578 0.0 
0.282145 -0.102755 0.0 
0.36494 -0.00793447 0.0 
0.738248 0.00692669 0.0 
0.355721 0.00467919 0.0 
0.367931 0.0309434 0.0 
0.558851 -0.0260001 0.0 
0.40178 0.0396877 0.0 
0.23594 0.0956875 0.0 
0.370817 -0.0281005 0.0 
0.325722 0.0279551 0.0 
0.413553 0.0192592 0.0 
0.534644 0.0724357 0.0 
0.290697 0.0703959 0.0 
0.553475 -0.0110076 0.0 
0.5312 0.0267538 0.0 
0.338087 0.0484794 0.0 
0.541293 0.0128243 0.0 
0.810973 0.00202106 0.0 
0.61481 0.018341 0.0 
0.469208 0.0252933 0.0 
0.703052 0.0506305 0.0 
0.594514 0.0656355 0.0 
0.402193 0.0117511 0.0 
0.825115 0.00429118 0.0 
0.318792 0.0872577 0.0 
0.664847 0.0740535 0.0 
0.183093 -0.0352638 0.0 
0.170989 -0.013203 0.0 
0.823292 -0.00141381 0.0 
0.651766 0.0652445 0.0 
0.386032 0.0544881 0.0 
0.334331 0.0761153 0.0 
0.210875 0.0235209 0.0 
0.63965 0.0554527 0.0 
0.515994 0.0855899 0.0 
0.25411 0.0859806 0.0 
0.4952 0.02066 0.0 
0.415056 -0.0443824 0.0 
0.576124 0.0611355 0.0 
0.610572 0.0572709 0.0 
0.313697 0.0940477 0.0 
0.45797 0.0471339 0.0 
0.0807319 -0.0998103 0.0 
0.58392 0.0140386 0.0 
0.759662 0.0285282 0.0 
0.209266 -0.0671442 0.0 
0.580187 0.0416176 0.0 
0.306786 0.0780845 0.0 
0.342636 0.079632 0.0 
0.558421 0.0421485 0.0 
0.371968 0.0208685 0.0 
0.470808 -0.0262069 0.0 
0.0371344 -0.0754492 0.0 
0.622223 0.0594499 0.0 
0.367483 0.106318 0.0 
0.332661 0.0551378 0.0 
0.422221 0.0380433 0.0 
0.442489 -0.0343498 0.0 
0.374779 0.0147768 0.0 
0.571423 -0.0244745 0.0 
0.311059 0.0747865 0.0 
0.355518 0.0846925 0.0 
0.310884 0.0804727 0.0 
0.332894 0.0109785 0.0 
0.449849 0.033991 0.0 
0.47846 -0.056856 0.0 
0.657637 0.010119 0.0 
0.593892 0.00828204 0.0 
0.727547 0.0533808 0.0 
0.565665 -0.0408996 0.0 
0.164752 -0.101219 0.0 
0.165366 -0.070676 0.0 
0.584706 -0.00901586 0.0 
0.553635 0.0927215 0.0 
0.648002 0.081359 0.0 
0.533325 0.0761395 0.0 
0.84575 0.00428399 0.0 
0.578694 0.00487786 0.0 
0.320288 0.084179 0.0 
0.48733 -0.00830876 0.0 
0.374115 0.0485905 0.0 
0.597089 0.0710961 0.0 
0.404862 -0.0285759 0.0 
0.725455 0.0796077 0.0 
0.463418 0.0808244 0.0 
0.613835 0.0862527 0.0 
0.523992 -0.0524281 0.0 
0.485807 0.0843763 0.0 
0.557564 -0.0215094 0.0 
0.525129 0.0372434 0.0 
0.75587 0.0685493 0.0 
0.573073 0.0523367 0.0 
0.202785 -0.0503 0.0 
0.262104 0.105247 0.0 
0.27075 0.111606 0.0 
0.206524 -0.0597355 0.0 
0.219786 0.0924701 0.0 
0.311452 0.0867582 0.0 
0.630283 0.0746392 0.0 
0.522676 0.070218 0.0 
0.418343 0.0564972 0.0 
0.715661 0.0494953 0.0 
0.436134 0.0147571 0.0 
0.604245 0.0629475 0.0 
0.430072 -0.0552689 0.0 
0.450618 0.0271897 0.0 
0.404748 -0.0345781 0.0 
0.408567 0.0424989 0.0 
0.685117 0.0865193 0.0 
0.261237 0.0983268 0.0 
0.296758 0.0969677 0.0 
0.554378 0.0669595 0.0 
0.75432 0.0739403 0.0 
0.31016 0.112315 0.0 
0.343532 0.0435658 0.0 
0.533565 0.04703 0.0 
0.469817 -0.0240699 0.0 
0.193054 0.0130867 0.0 
0.144574 0.0426241 0.0 
0.700983 0.0746869 0.0 
0.595336 0.0877886 0.0 
0.498784 -0.0191779 0.0 
0.346659 0.0323724 0.0 
0.406582 0.0791689 0.0 
0.280771 -0.0967674 0.0 
0.785479 0.00537254 0.0 
0.133249 -0.0110387 0.0 
0.499809 0.0430885 0.0 
0.611571 0.0829251 0.0 
0.350733 0.0787527 0.0 
0.478867 -0.0537155 0.0 
0.272434 0.0197621 0.0 
0.501964 0.0593531 0.0 
0.456623 0.0978181 0.0 
0.180015 0.000219216 0.0 
0.603571 0.00512347 0.0 
0.501714 0.03818 0.0 
0.239385 -0.000574809 0.0 
0.704575 0.0594764 0.0 
0.714602 0.0835612 0.0 
0.736715 0.0828365 0.0 
0.61995 0.0824122 0.0 
0.633718 0.0370065 0.0 
0.661064 0.0284639 0.0 
0.744 0.0518785 0.0 
0.0549265 -0.0547571 0.0 
0.521463 0.0470945 0.0 
0.469171 -0.0573948 0.0 
0.32462 0.0494883 0.0 
0.405422 0.00379822 0.0 
0.384256 -0.0179379 0.0 
0.0933764 -0.0906132 0.0 
0.54258 0.0574683 0.0 
0.0374408 -0.0748172 0.0 
0.306708 0.0913254 0.0 
0.580189 0.0199314 0.0 
0.466971 0.0365372 0.0 
0.885247 0.00302261 0.0 
0.515154 -0.0318726 0.0 
0.14902 0.0339522 0.0 
0.409043 -0.0499568 0.0 
0.713886 0.0849928 0.0 
0.319934 0.0916685 0.0 
0.656864 0.0514884 0.0 
0.576169 -0.0225633 0.0 
0.651283 -0.00691515 0.0 
0.225432 0.0666297 0.0 
0.461905 0.0614388 0.0 
0.43035 0.0290746 0.0 
0.651333 0.0874796 0.0 
0.540804 0.0817451 0.0 
0.42757 -0.0346711 0.0 
0.0784752 -0.0218645 0.0 
0.201295 0.0648311 0.0 
0.0900887 -0.0677448 0.0 
0.472621 0.0253324 0.0 
0.465514 -0.052736 0.0 
0.458646 -0.037969 0.0 
0.496545 0.0351701 0.0 
0.399395 -0.0460515 0.0 
0.376798 -0.0331559 0.0 
0.46838 -0.0410994 0.0 
0.109389 -0.0495896 0.0 
0.676632 0.048379 0.0 
0.912411 -0.000399455 0.0 
0.702212 0.0391813 0.0 
0.327033 0.0584791 0.0 
0.372999 0.074079 0.0 
0.589701 0.0529953 0.0 
0.449906 0.0429569 0.0 
0.597067 0.0103865 0.0 
0.683537 0.0809528 0.0 
0.320702 0.0592259 0.0 
0.485447 0.00209387 0.0 
0.371471 0.0788076 0.0 
0.322489 0.0984745 0.0 
0.479149 -0.0159969 0.0 
0.842552 0.00373191 0.0 
0.550881 0.00766042 0.0 
0.515815 -0.00207448 0.0 
0.673447 0.0805695 0.0 
0.631371 0.0689131 0.0 
0.335301 0.0902566 0.0 
0.222938 0.087964 0.0 
0.611641 0.0885573 0.0 
0.316071 0.101858 0.0 
0.352532 0.0685165 0.0 
0.354876 0.00251139 0.0 
0.609763 0.00978025 0.0 